Compiler and run-time data
===========================================================================
RASPA 2.0.37
Compiled as a 64-bits application
Compiler: gcc 7.5.0
Compile Date = Nov 15 2021, Compile Time = 11:09:27

Fri Nov 26 20:33:25 2021
Simulation started on Friday, November 26.
The start time was 08:33 PM.

Hostname:    The start time was 08:33 PM.
OS type:     The start time was 08:33 PM.
OS release:  The start time was 08:33 PM.
OS version:  The start time was 08:33 PM.

Simulation
===========================================================================
Dimensions: 3
Random number seed: 1637926405
RASPA directory set to: /home/inukai/RASPA2
String appended to output-files: 
Number of cycles: 10000
Number of initializing cycles: 0
Number of equilibration cycles: 0
Print every: 100
Triclinic boundary condition applied
Timestep: 0.000500
	Degrees of freedom:                        0
	Translational Degrees of freedom:          0
	Rotational Degrees of freedom:             0
	Degrees of freedom Framework:              0


Mutual consistent basic set of units:
======================================
Unit of temperature: Kelvin
Unit of length:      1e-10 [m]
Unit of time:        1e-12 [s]
Unit of mass:        1.66054e-27 [kg]
Unit of charge:      1.60218e-19 [C/particle]

Derived units and their conversion factors:
===========================================
Unit of energy:              1.66054e-23 [J]
Unit of force:               1.66054e-13 [N]
Unit of pressure:            1.66054e+07 [Pa]
Unit of velocity:            100 [m/s]
Unit of acceleration:        1e-08 [m^2/s]
Unit of diffusion:           1e-08 [m^2/s]
Unit of dipole moment:       1.60218e-29 [C.m]
Unit of electric potential:  0.000103643 [V]
Unit of electric field:      1.03643e+06 [V]
Unit of polarizability:      1.54587e-35 [-]
Unit of Coulomb potential:   167101.0800066561  [K]
Unit of dielectric constant: 0.0000154587       [s^2 C^2/(kg m^3)]
Unit of wave vectors:        5.3088374589       [cm^1]
Boltzmann constant:          0.8314464919       [-]

Internal conversion factors:
===========================================
Energy to Kelvin:                                    1.2027242847
FH correction factor                                 2.0211930949
Heat capacity conversion factor:                    10.0000088723
From Debye to internal units:                        4.8032067991
Isothermal compressibility conversion factor:        0.0000000602

Energy conversion factors:
===========================================
From mdyne/A to kcal/mol/A^2:           143.933
From mdyne/A to kj/mol/A^2:             602.214
From mdyne/A to K/A^2:                  72429.7
From mdyne A/rad^2 to kcal/mol/deg^2:   0.0438444


Properties computed
===========================================================================
Movies: no
Radial Distribution Function: no
Number of molecules GCMC histogram: no
Histogram of the molecule positions: no
Free energy profiles: no
Pore Size Distribution Function: no
End-to-end distance: no
Histogram of the energy of the system: no
Compute thermodynamic factors: no
Framework spacing histograms: no
Residence times histograms: no
Distance histograms: no
Bend Angle histograms: no
Dihedral angle histograms: no
Angle between planes histograms: no
Molecule properties: no
Infra-red spectra: no
Mean-squared displacement using modified order-N algorithm: no
Velocity-autocorrelation function modified order-N algorithm: no
Rotational velocity-autocorrelation function modified order-N algorithm: no
Molecular orientation-autocorrelation function modified order-N algorithm: no
Bond orientation-autocorrelation function modified order-N algorithm: no
Mean-squared displacement (conventional algorithm): no
Velocity-autocorrelation function (conventional algorithm): no
3D density grid for adsorbates: no
Compute cation an/or adsorption sites: no
dcTST snapshots: no
Compute pressure and stress: no


VTK
===========================================================================
VTK fractional-range position framework atoms: [-0.001000,1.001000] [-0.001000,1.001000] [-0.001000,1.001000]
VTK fractional-range position framework bonds: [-0.151000,1.151000] [-0.151000,1.151000] [-0.151000,1.151000]
VTK fractional-range com-position adsorbate molecules: [-0.101000,1.101000] [-0.101000,1.101000] [-0.101000,1.101000]
VTK fractional-range com-position cation molecules: [-0.101000,1.101000] [-0.101000,1.101000] [-0.101000,1.101000]
	3D free energy grid made for the full simulation-cell


Thermo/Baro-stat NHC parameters
===========================================================================
External temperature: 298 [K]
Beta: 0 [energy unit]
External Pressure: 0 [Pa]


Thermostat chain-length: 3
Timescale parameter for thermostat: 0.150000 [ps]
Barostat chain-length:   3
Timescale parameter for barostat:   0.150000 [ps]

Number of Yoshida-Suzuki decomposition steps: 5
Number of respa steps: 5


Method and settings for electrostatics
===============================================================================
Dielectric constant of the medium : 1.000000
Charge from charge-equilibration: no
Ewald summation is used (exact solution of a periodic system)
Relative precision                : 1e-06
Alpha convergence parameter       : 0.265058
kvec (x,y,z)                      : 7 7 2


CFC-RXMC parameters
===========================================================================
Number of reactions: 0


Rattle parameters
===========================================================================
Distance constraint type: r^2-r^2_0
Bend angle constraint type: theta-theta_0
Dihedral angle constraint type: phi-phi_0
Inversion-bend angle constraint type: chi-chi_0
Out-of-plane distance constraint type: r-r_0


Spectra parameters
===========================================================================
Compute normal modes: no


Minimization parameters
===========================================================================
Generalized coordinates are: Cartesian center-of-mass, elements of the orientational matrix p1,p2,p3 and strain
Potential derivatives are evaluated: analytically
Translation of the system is removed from the generalized Hessian: no
Rotation of the system is removed from the generalized Hessian: no
Maximum step-length: 0.3
Convergence factor: 1
Maximum number of minimization steps: 10000
Use gradients in the line-minimizations: yes
RMS gradient tolerance: 1e-06
Maximum gradient tolerance: 1e-06

Distance constraints: 0
Angle constraints: 0
Dihedral constraints: 0

Improper dihedral constraints: 0

Inversion-bend constraints: 0

Out-of-plane constraints: 0

Harmonic distance constraints: 0
Harmonic angle constraints: 0
Harmonic dihedral constraints: 0

Dihedral mid-point measurements: 0

All framework atoms are fixed

Fixed adsorbate atoms:  
Fixed adsorbate groups (center-of-mass):  
Fixed adsorbate groups (orientation):  

Fixed cation atoms:  
Fixed cation groups (center-of-mass):  
Fixed cation groups (orientation):  


dcTST parameters
===========================================================================
Free energy profiles computed: no
Free energy profiles written every 5000 cycles
Free energy mapping: mapped to a,b,c-coordinates
BarrierPosition:       0.0000000000       0.0000000000       0.0000000000
BarrierNormal:         0.0000000000       0.0000000000       0.0000000000
Start with a molecule on top of the barrier: no
Maximum distance to barrier (e.g. distance to minumum free energy):       0.0000000000 [A]
Maximum trajectory time:      10.0000000000 [ps]
Each configuration is used with 5 different initial velocities


Cbmc parameters
===========================================================================
Biasing method: using only the VDW part
Number of trial positions:                                       10
Number of trial positions (reinsertion):                         10
Number of trial positions (partial reinsertion):                 10
Number of trial positions (identity-change):                     10
Number of trial positions (Gibbs particle transfer):             10
Number of trial positions (insertion/deletion):                  10
Number of trial positions (Widom insertion):                     10
Number of trial positions coupled Torsion-selection:             100
Number of trial positions first bead:                            10
Number of trial positions first bead (reinsertion):              10
Number of trial positions first bead (partial reinsertion):      10
Number of trial positions first bead (identity-change):          10
Number of trial positions first bead (Gibbs particle transfer):  10
Number of trial positions first bead (insertion/deletion):       10
Number of trial positions first bead (Widom insertion):          10
Number of trial moves per open bead:                             150
Target acceptance ratio small-mc scheme:                         0.400000
Energy overlap criteria:                                         1e+07
Minimal Rosenbluth factor:                                       1e-150


Pseudo atoms: 39
===========================================================================
Pseudo Atom[   0] Name UNIT     Oxidation:          Element: H    pdb-name: H    Scat. Types:   1   1 Mass=1.000000000  B-factor:0.000   
                 Charge=1.000000000          Polarization=0.000000000  [A^3] (considered a charged atom and no polarization)  Interactions: yes
                 Anisotropic factor:    0.000 [-] (Absolute), Radius:    1.000 [A], Framework-atom:  no
Pseudo Atom[   1] Name He       Oxidation: +0       Element: He   pdb-name: He   Scat. Types:   3   2 Mass=4.002602000  B-factor:1.000   
                 Charge=0.000000000          Polarization=0.000000000  [A^3] (considered a chargeless atom and no polarization)  Interactions: yes
                 Anisotropic factor:    0.000 [-] (Relative), Radius:    1.000 [A], Framework-atom:  no
Pseudo Atom[   2] Name Mg1      Oxidation: +0       Element: Mg   pdb-name: Mg   Scat. Types:  13  12 Mass=24.305060000 B-factor:1.000   
                 Charge=1.563700000          Polarization=0.000000000  [A^3] (considered a charged atom and no polarization)  Interactions: yes
                 Anisotropic factor:    0.000 [-] (Relative), Radius:    1.600 [A], Framework-atom: yes (charge from pseudo-atoms file)
Pseudo Atom[   3] Name O1       Oxidation: +0       Element: O    pdb-name: O    Scat. Types:   9   8 Mass=15.999400000 B-factor:1.000   
                 Charge=-0.765400000         Polarization=0.000000000  [A^3] (considered a charged atom and no polarization)  Interactions: yes
                 Anisotropic factor:    0.000 [-] (Relative), Radius:    0.680 [A], Framework-atom: yes (charge from pseudo-atoms file)
Pseudo Atom[   4] Name O2       Oxidation: +0       Element: O    pdb-name: O    Scat. Types:   9   8 Mass=15.999400000 B-factor:1.000   
                 Charge=-0.708800000         Polarization=0.000000000  [A^3] (considered a charged atom and no polarization)  Interactions: yes
                 Anisotropic factor:    0.000 [-] (Relative), Radius:    0.680 [A], Framework-atom: yes (charge from pseudo-atoms file)
Pseudo Atom[   5] Name O3       Oxidation: +0       Element: O    pdb-name: O    Scat. Types:   9   8 Mass=15.999400000 B-factor:1.000   
                 Charge=-0.832800000         Polarization=0.000000000  [A^3] (considered a charged atom and no polarization)  Interactions: yes
                 Anisotropic factor:    0.000 [-] (Relative), Radius:    0.680 [A], Framework-atom: yes (charge from pseudo-atoms file)
Pseudo Atom[   6] Name C1       Oxidation: +0       Element: C    pdb-name: C    Scat. Types:   7   6 Mass=12.010700000 B-factor:1.000   
                 Charge=0.482000000          Polarization=0.000000000  [A^3] (considered a charged atom and no polarization)  Interactions: yes
                 Anisotropic factor:    0.000 [-] (Relative), Radius:    0.720 [A], Framework-atom: yes (charge from pseudo-atoms file)
Pseudo Atom[   7] Name C2       Oxidation: +0       Element: C    pdb-name: C    Scat. Types:   7   6 Mass=12.010700000 B-factor:1.000   
                 Charge=-0.135400000         Polarization=0.000000000  [A^3] (considered a charged atom and no polarization)  Interactions: yes
                 Anisotropic factor:    0.000 [-] (Relative), Radius:    0.720 [A], Framework-atom: yes (charge from pseudo-atoms file)
Pseudo Atom[   8] Name C3       Oxidation: +0       Element: C    pdb-name: C    Scat. Types:   7   6 Mass=12.010700000 B-factor:1.000   
                 Charge=0.189000000          Polarization=0.000000000  [A^3] (considered a charged atom and no polarization)  Interactions: yes
                 Anisotropic factor:    0.000 [-] (Relative), Radius:    0.720 [A], Framework-atom: yes (charge from pseudo-atoms file)
Pseudo Atom[   9] Name C4       Oxidation: +0       Element: C    pdb-name: C    Scat. Types:   7   6 Mass=12.010700000 B-factor:1.000   
                 Charge=-0.181400000         Polarization=0.000000000  [A^3] (considered a charged atom and no polarization)  Interactions: yes
                 Anisotropic factor:    0.000 [-] (Relative), Radius:    0.720 [A], Framework-atom: yes (charge from pseudo-atoms file)
Pseudo Atom[  10] Name H1       Oxidation: +0       Element: H    pdb-name: H    Scat. Types:   1   1 Mass=1.007940000  B-factor:1.000   
                 Charge=0.389100000          Polarization=0.000000000  [A^3] (considered a charged atom and no polarization)  Interactions: yes
                 Anisotropic factor:    0.000 [-] (Relative), Radius:    0.320 [A], Framework-atom: yes (charge from pseudo-atoms file)
Pseudo Atom[  11] Name CH4_sp3  Oxidation: +0       Element: C    pdb-name: C    Scat. Types:   7   6 Mass=16.042460000 B-factor:1.000   
                 Charge=0.000000000          Polarization=0.000000000  [A^3] (considered a chargeless atom and no polarization)  Interactions: yes
                 Anisotropic factor:    0.000 [-] (Relative), Radius:    1.000 [A], Framework-atom:  no
Pseudo Atom[  12] Name CH3_sp3  Oxidation: +0       Element: C    pdb-name: C    Scat. Types:   7   6 Mass=15.034520000 B-factor:1.000   
                 Charge=0.000000000          Polarization=0.000000000  [A^3] (considered a chargeless atom and no polarization)  Interactions: yes
                 Anisotropic factor:    0.000 [-] (Relative), Radius:    1.000 [A], Framework-atom:  no
Pseudo Atom[  13] Name CH2_sp3  Oxidation: +0       Element: C    pdb-name: C    Scat. Types:   7   6 Mass=14.026580000 B-factor:1.000   
                 Charge=0.000000000          Polarization=0.000000000  [A^3] (considered a chargeless atom and no polarization)  Interactions: yes
                 Anisotropic factor:    0.000 [-] (Relative), Radius:    1.000 [A], Framework-atom:  no
Pseudo Atom[  14] Name CH_sp3   Oxidation: +0       Element: C    pdb-name: C    Scat. Types:   7   6 Mass=13.018640000 B-factor:1.000   
                 Charge=0.000000000          Polarization=0.000000000  [A^3] (considered a chargeless atom and no polarization)  Interactions: yes
                 Anisotropic factor:    0.000 [-] (Relative), Radius:    1.000 [A], Framework-atom:  no
Pseudo Atom[  15] Name C_sp3    Oxidation: +0       Element: C    pdb-name: C    Scat. Types:   7   6 Mass=12.000000000 B-factor:1.000   
                 Charge=0.000000000          Polarization=0.000000000  [A^3] (considered a chargeless atom and no polarization)  Interactions: yes
                 Anisotropic factor:    0.000 [-] (Relative), Radius:    1.000 [A], Framework-atom:  no
Pseudo Atom[  16] Name H_h2     Oxidation: +0       Element: H    pdb-name: H    Scat. Types:   1   1 Mass=1.007940000  B-factor:1.000   
                 Charge=0.468000000          Polarization=0.000000000  [A^3] (considered a charged atom and no polarization)  Interactions:  no
                 Anisotropic factor:    0.000 [-] (Relative), Radius:    0.700 [A], Framework-atom:  no
Pseudo Atom[  17] Name H_com    Oxidation: +0       Element: H    pdb-name: H    Scat. Types:   1   1 Mass=0.000000000  B-factor:1.000   
                 Charge=-0.936000000         Polarization=0.000000000  [A^3] (considered a charged atom and no polarization)  Interactions: yes
                 Anisotropic factor:    0.000 [-] (Relative), Radius:    0.700 [A], Framework-atom:  no
Pseudo Atom[  18] Name C_co2    Oxidation: +0       Element: C    pdb-name: C    Scat. Types:   7   6 Mass=12.000000000 B-factor:1.000   
                 Charge=0.700000000          Polarization=0.000000000  [A^3] (considered a charged atom and no polarization)  Interactions: yes
                 Anisotropic factor:    0.000 [-] (Relative), Radius:    0.720 [A], Framework-atom:  no
Pseudo Atom[  19] Name O_co2    Oxidation: +0       Element: O    pdb-name: O    Scat. Types:   9   8 Mass=15.999400000 B-factor:1.000   
                 Charge=-0.350000000         Polarization=0.000000000  [A^3] (considered a charged atom and no polarization)  Interactions: yes
                 Anisotropic factor:    0.000 [-] (Relative), Radius:    0.680 [A], Framework-atom:  no
Pseudo Atom[  20] Name O_o2     Oxidation: +0       Element: O    pdb-name: O    Scat. Types:   9   8 Mass=15.999400000 B-factor:1.000   
                 Charge=-0.112000000         Polarization=0.000000000  [A^3] (considered a charged atom and no polarization)  Interactions:  no
                 Anisotropic factor:    0.000 [-] (Relative), Radius:    0.700 [A], Framework-atom:  no
Pseudo Atom[  21] Name O_com    Oxidation: +0       Element: -    pdb-name: O    Scat. Types:   0   8 Mass=0.000000000  B-factor:1.000   
                 Charge=0.224000000          Polarization=0.000000000  [A^3] (considered a charged atom and no polarization)  Interactions:  no
                 Anisotropic factor:    0.000 [-] (Relative), Radius:    0.700 [A], Framework-atom:  no
Pseudo Atom[  22] Name N_n2     Oxidation: +0       Element: N    pdb-name: N    Scat. Types:   8   7 Mass=14.006740000 B-factor:1.000   
                 Charge=-0.404800000         Polarization=0.000000000  [A^3] (considered a charged atom and no polarization)  Interactions: yes
                 Anisotropic factor:    0.000 [-] (Relative), Radius:    0.700 [A], Framework-atom:  no
Pseudo Atom[  23] Name N_com    Oxidation: +0       Element: -    pdb-name: N    Scat. Types:   0   7 Mass=0.000000000  B-factor:1.000   
                 Charge=0.809600000          Polarization=0.000000000  [A^3] (considered a charged atom and no polarization)  Interactions:  no
                 Anisotropic factor:    0.000 [-] (Relative), Radius:    0.700 [A], Framework-atom:  no
Pseudo Atom[  24] Name Ar       Oxidation: +0       Element: Ar   pdb-name: Ar   Scat. Types:  19  18 Mass=39.948000000 B-factor:1.000   
                 Charge=0.000000000          Polarization=0.000000000  [A^3] (considered a chargeless atom and no polarization)  Interactions: yes
                 Anisotropic factor:    0.000 [-] (Relative), Radius:    0.700 [A], Framework-atom:  no
Pseudo Atom[  25] Name Ow       Oxidation: +0       Element: O    pdb-name: O    Scat. Types:   9   8 Mass=15.999400000 B-factor:1.000   
                 Charge=0.000000000          Polarization=0.000000000  [A^3] (considered a chargeless atom and no polarization)  Interactions: yes
                 Anisotropic factor:    0.000 [-] (Relative), Radius:    0.500 [A], Framework-atom:  no
Pseudo Atom[  26] Name Hw       Oxidation: +0       Element: H    pdb-name: H    Scat. Types:   1   1 Mass=1.007940000  B-factor:1.000   
                 Charge=0.241000000          Polarization=0.000000000  [A^3] (considered a charged atom and no polarization)  Interactions:  no
                 Anisotropic factor:    0.000 [-] (Relative), Radius:    1.000 [A], Framework-atom:  no
Pseudo Atom[  27] Name Hw       Oxidation: +0       Element: H    pdb-name: H    Scat. Types:   1   1 Mass=1.007940000  B-factor:1.000   
                 Charge=0.241000000          Polarization=0.000000000  [A^3] (considered a charged atom and no polarization)  Interactions:  no
                 Anisotropic factor:    0.000 [-] (Relative), Radius:    1.000 [A], Framework-atom:  no
Pseudo Atom[  28] Name Lw       Oxidation: +0       Element: H    pdb-name: L    Scat. Types:   1   3 Mass=0.000000000  B-factor:1.000   
                 Charge=-0.241000000         Polarization=0.000000000  [A^3] (considered a charged atom and no polarization)  Interactions:  no
                 Anisotropic factor:    0.000 [-] (Relative), Radius:    1.000 [A], Framework-atom:  no
Pseudo Atom[  29] Name Lw       Oxidation: +0       Element: H    pdb-name: L    Scat. Types:   1   3 Mass=0.000000000  B-factor:1.000   
                 Charge=-0.241000000         Polarization=0.000000000  [A^3] (considered a charged atom and no polarization)  Interactions:  no
                 Anisotropic factor:    0.000 [-] (Relative), Radius:    1.000 [A], Framework-atom:  no
Pseudo Atom[  30] Name C_benz   Oxidation: +0       Element: C    pdb-name: C    Scat. Types:   7   6 Mass=12.000000000 B-factor:1.000   
                 Charge=-0.095000000         Polarization=0.000000000  [A^3] (considered a charged atom and no polarization)  Interactions: yes
                 Anisotropic factor:    0.000 [-] (Relative), Radius:    0.700 [A], Framework-atom:  no
Pseudo Atom[  31] Name H_benz   Oxidation: +0       Element: H    pdb-name: H    Scat. Types:   1   1 Mass=1.007940000  B-factor:1.000   
                 Charge=0.095000000          Polarization=0.000000000  [A^3] (considered a charged atom and no polarization)  Interactions: yes
                 Anisotropic factor:    0.000 [-] (Relative), Radius:    0.320 [A], Framework-atom:  no
Pseudo Atom[  32] Name N_dmf    Oxidation: +0       Element: N    pdb-name: N    Scat. Types:   8   7 Mass=14.006740000 B-factor:1.000   
                 Charge=-0.570000000         Polarization=0.000000000  [A^3] (considered a charged atom and no polarization)  Interactions: yes
                 Anisotropic factor:    0.000 [-] (Relative), Radius:    0.500 [A], Framework-atom:  no
Pseudo Atom[  33] Name Co_dmf   Oxidation: +0       Element: C    pdb-name: C    Scat. Types:   7   6 Mass=12.000000000 B-factor:1.000   
                 Charge=0.450000000          Polarization=0.000000000  [A^3] (considered a charged atom and no polarization)  Interactions: yes
                 Anisotropic factor:    0.000 [-] (Relative), Radius:    0.520 [A], Framework-atom:  no
Pseudo Atom[  34] Name Cm_dmf   Oxidation: +0       Element: C    pdb-name: C    Scat. Types:   7   6 Mass=12.000000000 B-factor:1.000   
                 Charge=0.280000000          Polarization=0.000000000  [A^3] (considered a charged atom and no polarization)  Interactions: yes
                 Anisotropic factor:    0.000 [-] (Relative), Radius:    0.520 [A], Framework-atom:  no
Pseudo Atom[  35] Name O_dmf    Oxidation: +0       Element: O    pdb-name: O    Scat. Types:   9   8 Mass=15.999400000 B-factor:1.000   
                 Charge=-0.500000000         Polarization=0.000000000  [A^3] (considered a charged atom and no polarization)  Interactions: yes
                 Anisotropic factor:    0.000 [-] (Relative), Radius:    0.780 [A], Framework-atom:  no
Pseudo Atom[  36] Name H_dmf    Oxidation: +0       Element: H    pdb-name: H    Scat. Types:   1   1 Mass=1.007940000  B-factor:1.000   
                 Charge=0.060000000          Polarization=0.000000000  [A^3] (considered a charged atom and no polarization)  Interactions: yes
                 Anisotropic factor:    0.000 [-] (Relative), Radius:    0.220 [A], Framework-atom:  no
Pseudo Atom[  37] Name Na       Oxidation: +0       Element: Na   pdb-name: Na   Scat. Types:  12  11 Mass=22.989770000 B-factor:1.000   
                 Charge=1.000000000          Polarization=0.000000000  [A^3] (considered a charged atom and no polarization)  Interactions:  no
                 Anisotropic factor:    0.000 [-] (Relative), Radius:    1.000 [A], Framework-atom:  no
Pseudo Atom[  38] Name Cl       Oxidation: +0       Element: Cl   pdb-name: Cl   Scat. Types:  18  17 Mass=22.989770000 B-factor:1.000   
                 Charge=-1.000000000         Polarization=0.000000000  [A^3] (considered a charged atom and no polarization)  Interactions:  no
                 Anisotropic factor:    0.000 [-] (Relative), Radius:    1.000 [A], Framework-atom:  no


Forcefield: Dzubak2012-MgMOF-74
===========================================================================
Minimal distance: 1
CutOff VDW : 12.800000 (163.840000)
CutOff VDW switching on: 11.520000 (132.710400)
CutOff charge-charge : 12.000000 (144.000000)
CutOff charge-charge switching on: 7.800000 (60.840000)
CutOff charge-bonddipole : 12.000000 (144.000000)
CutOff charge-bondipole switching on: 8.400000 (70.560000)
CutOff bonddipole-bonddipole : 12.000000 (144.000000)
CutOff bonddipole-bondipole switching on: 9.000000 (81.000000)
Polarization is neglected
All potentials are shifted to zero at the Cutoff

General mixing rule: Lorentz-Berthelot mixing rules are used FIRST for cross terms
0 cross terms are overwritten using the individual mixing rules from the file 'force_field_mixing_rules.def'
and then 18 terms are overwritten using the specific interactions from the file 'force_field.def'

The force field and all the interactions:
     He -      He [LENNARD_JONES] p_0/k_B:  10.90000 [K], p_1: 2.64000 [A], shift/k_B:  -0.00335596 [K], tailcorrection: no
     He - CH4_sp3 [LENNARD_JONES] p_0/k_B:  41.56501 [K], p_1: 3.18000 [A], shift/k_B:  -0.03908307 [K], tailcorrection: no
     He - CH3_sp3 [LENNARD_JONES] p_0/k_B:  34.31035 [K], p_1: 3.20000 [A], shift/k_B:  -0.03349802 [K], tailcorrection: no
     He - CH2_sp3 [LENNARD_JONES] p_0/k_B:  24.70627 [K], p_1: 3.30000 [A], shift/k_B:  -0.02901106 [K], tailcorrection: no
     He -  CH_sp3 [LENNARD_JONES] p_0/k_B:  13.61249 [K], p_1: 3.65500 [A], shift/k_B:  -0.02950032 [K], tailcorrection: no
     He -   C_sp3 [LENNARD_JONES] p_0/k_B:   2.95296 [K], p_1: 4.51000 [A], shift/k_B:  -0.02255724 [K], tailcorrection: no
     He -   H_com [LENNARD_JONES] p_0/k_B:  20.00075 [K], p_1: 2.79900 [A], shift/k_B:  -0.00874614 [K], tailcorrection: no
     He -   C_co2 [LENNARD_JONES] p_0/k_B:  17.15517 [K], p_1: 2.72000 [A], shift/k_B:  -0.00631784 [K], tailcorrection: no
     He -   O_co2 [LENNARD_JONES] p_0/k_B:  29.34451 [K], p_1: 2.84500 [A], shift/k_B:  -0.01415038 [K], tailcorrection: no
     He -    N_n2 [LENNARD_JONES] p_0/k_B:  19.80909 [K], p_1: 2.97500 [A], shift/k_B:  -0.01248872 [K], tailcorrection: no
     He -      Ar [LENNARD_JONES] p_0/k_B:  36.13613 [K], p_1: 2.99000 [A], shift/k_B:  -0.02348002 [K], tailcorrection: no
     He -      Ow [LENNARD_JONES] p_0/k_B:  31.25699 [K], p_1: 2.86850 [A], shift/k_B:  -0.01583513 [K], tailcorrection: no
     He -  C_benz [LENNARD_JONES] p_0/k_B:  18.29289 [K], p_1: 3.12000 [A], shift/k_B:  -0.01534331 [K], tailcorrection: no
     He -  H_benz [LENNARD_JONES] p_0/k_B:  16.65548 [K], p_1: 2.50000 [A], shift/k_B:  -0.00369805 [K], tailcorrection: no
     He -   N_dmf [LENNARD_JONES] p_0/k_B:  29.52965 [K], p_1: 2.92000 [A], shift/k_B:  -0.01664540 [K], tailcorrection: no
     He -  Co_dmf [LENNARD_JONES] p_0/k_B:  23.34524 [K], p_1: 3.17000 [A], shift/k_B:  -0.02154040 [K], tailcorrection: no
     He -  Cm_dmf [LENNARD_JONES] p_0/k_B:  29.52965 [K], p_1: 3.22000 [A], shift/k_B:  -0.02992840 [K], tailcorrection: no
     He -   O_dmf [LENNARD_JONES] p_0/k_B:  33.01515 [K], p_1: 2.80000 [A], shift/k_B:  -0.01446818 [K], tailcorrection: no
     He -   H_dmf [LENNARD_JONES] p_0/k_B:   9.33809 [K], p_1: 2.42000 [A], shift/k_B:  -0.00170581 [K], tailcorrection: no
    Mg1 -   C_co2 [DZUBAK2012] p_0/k_B: 73950000.00000 [K], p_1:  4.77000 [A^-1], p_2/k_B:  0.00000 [K A^5], p_3/k_B:  0.00000 [K A^6], p_4:  1.50000 [A], shift/k_B:  0.00000 [K]
    Mg1 -   O_co2 [DZUBAK2012] p_0/k_B: 40670000.00000 [K], p_1:  4.15200 [A^-1], p_2/k_B:  0.00000 [K A^5], p_3/k_B: 406200.00000 [K A^6], p_4:  1.50000 [A], shift/k_B: -0.09236 [K]
     O1 -   C_co2 [DZUBAK2012] p_0/k_B: 230470000.00000 [K], p_1:  4.99000 [A^-1], p_2/k_B:  0.00000 [K A^5], p_3/k_B:  0.00000 [K A^6], p_4:  1.50000 [A], shift/k_B:  0.00000 [K]
     O1 -   O_co2 [DZUBAK2012] p_0/k_B: 14010000.00000 [K], p_1:  3.33000 [A^-1], p_2/k_B: 63600.00000 [K A^5], p_3/k_B:  0.00000 [K A^6], p_4:  1.50000 [A], shift/k_B: -0.18510 [K]
     O2 -   C_co2 [DZUBAK2012] p_0/k_B: 230470000.00000 [K], p_1:  4.99000 [A^-1], p_2/k_B:  0.00000 [K A^5], p_3/k_B:  0.00000 [K A^6], p_4:  1.50000 [A], shift/k_B:  0.00000 [K]
     O2 -   O_co2 [DZUBAK2012] p_0/k_B: 16730000.00000 [K], p_1:  3.52000 [A^-1], p_2/k_B:  0.00000 [K A^5], p_3/k_B: 89100.00000 [K A^6], p_4:  1.50000 [A], shift/k_B: -0.02026 [K]
     O3 -   C_co2 [DZUBAK2012] p_0/k_B: 230470000.00000 [K], p_1:  4.99000 [A^-1], p_2/k_B:  0.00000 [K A^5], p_3/k_B:  0.00000 [K A^6], p_4:  1.50000 [A], shift/k_B:  0.00000 [K]
     O3 -   O_co2 [DZUBAK2012] p_0/k_B: 14680000.00000 [K], p_1:  3.39900 [A^-1], p_2/k_B: 116000.00000 [K A^5], p_3/k_B:  0.00000 [K A^6], p_4:  1.50000 [A], shift/k_B: -0.33760 [K]
     C1 -   C_co2 [DZUBAK2012] p_0/k_B: 69000000.00000 [K], p_1:  4.19000 [A^-1], p_2/k_B:  0.00000 [K A^5], p_3/k_B:  0.00000 [K A^6], p_4:  1.50000 [A], shift/k_B:  0.00000 [K]
     C1 -   O_co2 [DZUBAK2012] p_0/k_B: 22800000.00000 [K], p_1:  4.06500 [A^-1], p_2/k_B: 144500.00000 [K A^5], p_3/k_B:  0.00000 [K A^6], p_4:  1.50000 [A], shift/k_B: -0.42055 [K]
     C2 -   C_co2 [DZUBAK2012] p_0/k_B: 69000000.00000 [K], p_1:  4.19000 [A^-1], p_2/k_B:  0.00000 [K A^5], p_3/k_B:  0.00000 [K A^6], p_4:  1.50000 [A], shift/k_B:  0.00000 [K]
     C2 -   O_co2 [DZUBAK2012] p_0/k_B: 14080000.00000 [K], p_1:  3.34800 [A^-1], p_2/k_B:  0.00000 [K A^5], p_3/k_B: 90700.00000 [K A^6], p_4:  1.50000 [A], shift/k_B: -0.02062 [K]
     C3 -   C_co2 [DZUBAK2012] p_0/k_B: 69000000.00000 [K], p_1:  4.19000 [A^-1], p_2/k_B:  0.00000 [K A^5], p_3/k_B:  0.00000 [K A^6], p_4:  1.50000 [A], shift/k_B:  0.00000 [K]
     C3 -   O_co2 [DZUBAK2012] p_0/k_B: 21390000.00000 [K], p_1:  3.78600 [A^-1], p_2/k_B: 119400.00000 [K A^5], p_3/k_B:  0.00000 [K A^6], p_4:  1.50000 [A], shift/k_B: -0.34750 [K]
     C4 -   C_co2 [DZUBAK2012] p_0/k_B: 45840000.00000 [K], p_1:  4.05000 [A^-1], p_2/k_B:  0.00000 [K A^5], p_3/k_B:  0.00000 [K A^6], p_4:  1.50000 [A], shift/k_B:  0.00000 [K]
     C4 -   O_co2 [DZUBAK2012] p_0/k_B: 5620000.00000 [K], p_1:  3.00600 [A^-1], p_2/k_B:  0.00000 [K A^5], p_3/k_B: 175600.00000 [K A^6], p_4:  1.50000 [A], shift/k_B: -0.03993 [K]
     H1 -   C_co2 [DZUBAK2012] p_0/k_B: 62610000.00000 [K], p_1:  5.00000 [A^-1], p_2/k_B:  0.00000 [K A^5], p_3/k_B:  0.00000 [K A^6], p_4:  1.50000 [A], shift/k_B:  0.00000 [K]
     H1 -   O_co2 [DZUBAK2012] p_0/k_B: 21530000.00000 [K], p_1:  4.18000 [A^-1], p_2/k_B:  0.00000 [K A^5], p_3/k_B: 82400.00000 [K A^6], p_4:  1.50000 [A], shift/k_B: -0.01874 [K]
CH4_sp3 - CH4_sp3 [LENNARD_JONES] p_0/k_B: 158.50000 [K], p_1: 3.72000 [A], shift/k_B:  -0.38179067 [K], tailcorrection: no
CH4_sp3 - CH3_sp3 [LENNARD_JONES] p_0/k_B: 130.83577 [K], p_1: 3.74000 [A], shift/k_B:  -0.32545127 [K], tailcorrection: no
CH4_sp3 - CH2_sp3 [LENNARD_JONES] p_0/k_B:  94.21253 [K], p_1: 3.84000 [A], shift/k_B:  -0.27452345 [K], tailcorrection: no
CH4_sp3 -  CH_sp3 [LENNARD_JONES] p_0/k_B:  51.90857 [K], p_1: 4.19500 [A], shift/k_B:  -0.25697600 [K], tailcorrection: no
CH4_sp3 -   C_sp3 [LENNARD_JONES] p_0/k_B:  11.26055 [K], p_1: 5.05000 [A], shift/k_B:  -0.16922602 [K], tailcorrection: no
CH4_sp3 -   H_com [LENNARD_JONES] p_0/k_B:  76.26893 [K], p_1: 3.33900 [A], shift/k_B:  -0.09609692 [K], tailcorrection: no
CH4_sp3 -   C_co2 [LENNARD_JONES] p_0/k_B:  65.41789 [K], p_1: 3.26000 [A], shift/k_B:  -0.07139762 [K], tailcorrection: no
CH4_sp3 -   O_co2 [LENNARD_JONES] p_0/k_B: 111.89951 [K], p_1: 3.38500 [A], shift/k_B:  -0.15304946 [K], tailcorrection: no
CH4_sp3 -    N_n2 [LENNARD_JONES] p_0/k_B:  75.53807 [K], p_1: 3.51500 [A], shift/k_B:  -0.12951848 [K], tailcorrection: no
CH4_sp3 -      Ar [LENNARD_JONES] p_0/k_B: 137.79804 [K], p_1: 3.53000 [A], shift/k_B:  -0.24238199 [K], tailcorrection: no
CH4_sp3 -      Ow [LENNARD_JONES] p_0/k_B: 119.19241 [K], p_1: 3.40850 [A], shift/k_B:  -0.16993142 [K], tailcorrection: no
CH4_sp3 -  C_benz [LENNARD_JONES] p_0/k_B:  69.75636 [K], p_1: 3.66000 [A], shift/k_B:  -0.15241688 [K], tailcorrection: no
CH4_sp3 -  H_benz [LENNARD_JONES] p_0/k_B:  63.51240 [K], p_1: 3.04000 [A], shift/k_B:  -0.04558503 [K], tailcorrection: no
CH4_sp3 -   N_dmf [LENNARD_JONES] p_0/k_B: 112.60551 [K], p_1: 3.46000 [A], shift/k_B:  -0.17564951 [K], tailcorrection: no
CH4_sp3 -  Co_dmf [LENNARD_JONES] p_0/k_B:  89.02247 [K], p_1: 3.71000 [A], shift/k_B:  -0.21100157 [K], tailcorrection: no
CH4_sp3 -  Cm_dmf [LENNARD_JONES] p_0/k_B: 112.60551 [K], p_1: 3.76000 [A], shift/k_B:  -0.28920630 [K], tailcorrection: no
CH4_sp3 -   O_dmf [LENNARD_JONES] p_0/k_B: 125.89678 [K], p_1: 3.34000 [A], shift/k_B:  -0.15891193 [K], tailcorrection: no
CH4_sp3 -   H_dmf [LENNARD_JONES] p_0/k_B:  35.60899 [K], p_1: 2.96000 [A], shift/k_B:  -0.02177929 [K], tailcorrection: no
CH3_sp3 - CH3_sp3 [LENNARD_JONES] p_0/k_B: 108.00000 [K], p_1: 3.76000 [A], shift/k_B:  -0.27737791 [K], tailcorrection: no
CH3_sp3 - CH2_sp3 [LENNARD_JONES] p_0/k_B:  77.76889 [K], p_1: 3.86000 [A], shift/k_B:  -0.23377773 [K], tailcorrection: no
CH3_sp3 -  CH_sp3 [LENNARD_JONES] p_0/k_B:  42.84857 [K], p_1: 4.21500 [A], shift/k_B:  -0.21825685 [K], tailcorrection: no
CH3_sp3 -   C_sp3 [LENNARD_JONES] p_0/k_B:   9.29516 [K], p_1: 5.07000 [A], shift/k_B:  -0.14302910 [K], tailcorrection: no
CH3_sp3 -   H_com [LENNARD_JONES] p_0/k_B:  62.95713 [K], p_1: 3.35900 [A], shift/k_B:  -0.08221731 [K], tailcorrection: no
CH3_sp3 -   C_co2 [LENNARD_JONES] p_0/k_B:  54.00000 [K], p_1: 3.28000 [A], shift/k_B:  -0.06113839 [K], tailcorrection: no
CH3_sp3 -   O_co2 [LENNARD_JONES] p_0/k_B:  92.36883 [K], p_1: 3.40500 [A], shift/k_B:  -0.13088033 [K], tailcorrection: no
CH3_sp3 -    N_n2 [LENNARD_JONES] p_0/k_B:  62.35383 [K], p_1: 3.53500 [A], shift/k_B:  -0.11061323 [K], tailcorrection: no
CH3_sp3 -      Ar [LENNARD_JONES] p_0/k_B: 113.74709 [K], p_1: 3.55000 [A], shift/k_B:  -0.20697261 [K], tailcorrection: no
CH3_sp3 -      Ow [LENNARD_JONES] p_0/k_B:  98.38884 [K], p_1: 3.42850 [A], shift/k_B:  -0.14528157 [K], tailcorrection: no
CH3_sp3 -  C_benz [LENNARD_JONES] p_0/k_B:  57.58125 [K], p_1: 3.68000 [A], shift/k_B:  -0.12999386 [K], tailcorrection: no
CH3_sp3 -  H_benz [LENNARD_JONES] p_0/k_B:  52.42709 [K], p_1: 3.06000 [A], shift/k_B:  -0.03913843 [K], tailcorrection: no
CH3_sp3 -   N_dmf [LENNARD_JONES] p_0/k_B:  92.95160 [K], p_1: 3.48000 [A], shift/k_B:  -0.15009184 [K], tailcorrection: no
CH3_sp3 -  Co_dmf [LENNARD_JONES] p_0/k_B:  73.48469 [K], p_1: 3.73000 [A], shift/k_B:  -0.17988048 [K], tailcorrection: no
CH3_sp3 -  Cm_dmf [LENNARD_JONES] p_0/k_B:  92.95160 [K], p_1: 3.78000 [A], shift/k_B:  -0.24644482 [K], tailcorrection: no
CH3_sp3 -   O_dmf [LENNARD_JONES] p_0/k_B: 103.92305 [K], p_1: 3.36000 [A], shift/k_B:  -0.13595826 [K], tailcorrection: no
CH3_sp3 -   H_dmf [LENNARD_JONES] p_0/k_B:  29.39388 [K], p_1: 2.98000 [A], shift/k_B:  -0.01871912 [K], tailcorrection: no
CH2_sp3 - CH2_sp3 [LENNARD_JONES] p_0/k_B:  56.00000 [K], p_1: 3.96000 [A], shift/k_B:  -0.19623585 [K], tailcorrection: no
CH2_sp3 -  CH_sp3 [LENNARD_JONES] p_0/k_B:  30.85450 [K], p_1: 4.31500 [A], shift/k_B:  -0.18086960 [K], tailcorrection: no
CH2_sp3 -   C_sp3 [LENNARD_JONES] p_0/k_B:   6.69328 [K], p_1: 5.17000 [A], shift/k_B:  -0.11574245 [K], tailcorrection: no
CH2_sp3 -   H_com [LENNARD_JONES] p_0/k_B:  45.33431 [K], p_1: 3.45900 [A], shift/k_B:  -0.07059297 [K], tailcorrection: no
CH2_sp3 -   C_co2 [LENNARD_JONES] p_0/k_B:  38.88444 [K], p_1: 3.38000 [A], shift/k_B:  -0.05271437 [K], tailcorrection: no
CH2_sp3 -   O_co2 [LENNARD_JONES] p_0/k_B:  66.51316 [K], p_1: 3.50500 [A], shift/k_B:  -0.11211217 [K], tailcorrection: no
CH2_sp3 -    N_n2 [LENNARD_JONES] p_0/k_B:  44.89989 [K], p_1: 3.63500 [A], shift/k_B:  -0.09415515 [K], tailcorrection: no
CH2_sp3 -      Ar [LENNARD_JONES] p_0/k_B:  81.90726 [K], p_1: 3.65000 [A], shift/k_B:  -0.17605413 [K], tailcorrection: no
CH2_sp3 -      Ow [LENNARD_JONES] p_0/k_B:  70.84806 [K], p_1: 3.52850 [A], shift/k_B:  -0.12430204 [K], tailcorrection: no
CH2_sp3 -  C_benz [LENNARD_JONES] p_0/k_B:  41.46324 [K], p_1: 3.78000 [A], shift/k_B:  -0.10993248 [K], tailcorrection: no
CH2_sp3 -  H_benz [LENNARD_JONES] p_0/k_B:  37.75182 [K], p_1: 3.16000 [A], shift/k_B:  -0.03417923 [K], tailcorrection: no
CH2_sp3 -   N_dmf [LENNARD_JONES] p_0/k_B:  66.93280 [K], p_1: 3.58000 [A], shift/k_B:  -0.12809418 [K], tailcorrection: no
CH2_sp3 -  Co_dmf [LENNARD_JONES] p_0/k_B:  52.91503 [K], p_1: 3.83000 [A], shift/k_B:  -0.15179590 [K], tailcorrection: no
CH2_sp3 -  Cm_dmf [LENNARD_JONES] p_0/k_B:  66.93280 [K], p_1: 3.88000 [A], shift/k_B:  -0.20753555 [K], tailcorrection: no
CH2_sp3 -   O_dmf [LENNARD_JONES] p_0/k_B:  74.83315 [K], p_1: 3.46000 [A], shift/k_B:  -0.11672969 [K], tailcorrection: no
CH2_sp3 -   H_dmf [LENNARD_JONES] p_0/k_B:  21.16601 [K], p_1: 3.08000 [A], shift/k_B:  -0.01643082 [K], tailcorrection: no
 CH_sp3 -  CH_sp3 [LENNARD_JONES] p_0/k_B:  17.00000 [K], p_1: 4.67000 [A], shift/k_B:  -0.16000180 [K], tailcorrection: no
 CH_sp3 -   C_sp3 [LENNARD_JONES] p_0/k_B:   3.68782 [K], p_1: 5.52500 [A], shift/k_B:  -0.09478627 [K], tailcorrection: no
 CH_sp3 -   H_com [LENNARD_JONES] p_0/k_B:  24.97799 [K], p_1: 3.81400 [A], shift/k_B:  -0.06987756 [K], tailcorrection: no
 CH_sp3 -   C_co2 [LENNARD_JONES] p_0/k_B:  21.42429 [K], p_1: 3.73500 [A], shift/k_B:  -0.05286667 [K], tailcorrection: no
 CH_sp3 -   O_co2 [LENNARD_JONES] p_0/k_B:  36.64696 [K], p_1: 3.86000 [A], shift/k_B:  -0.11016287 [K], tailcorrection: no
 CH_sp3 -    N_n2 [LENNARD_JONES] p_0/k_B:  24.73863 [K], p_1: 3.99000 [A], shift/k_B:  -0.09070153 [K], tailcorrection: no
 CH_sp3 -      Ar [LENNARD_JONES] p_0/k_B:  45.12870 [K], p_1: 4.00500 [A], shift/k_B:  -0.16922342 [K], tailcorrection: no
 CH_sp3 -      Ow [LENNARD_JONES] p_0/k_B:  39.03538 [K], p_1: 3.88350 [A], shift/k_B:  -0.12169132 [K], tailcorrection: no
 CH_sp3 -  C_benz [LENNARD_JONES] p_0/k_B:  22.84513 [K], p_1: 4.13500 [A], shift/k_B:  -0.10374162 [K], tailcorrection: no
 CH_sp3 -  H_benz [LENNARD_JONES] p_0/k_B:  20.80024 [K], p_1: 3.51500 [A], shift/k_B:  -0.03566434 [K], tailcorrection: no
 CH_sp3 -   N_dmf [LENNARD_JONES] p_0/k_B:  36.87818 [K], p_1: 3.93500 [A], shift/k_B:  -0.12441458 [K], tailcorrection: no
 CH_sp3 -  Co_dmf [LENNARD_JONES] p_0/k_B:  29.15476 [K], p_1: 4.18500 [A], shift/k_B:  -0.14228253 [K], tailcorrection: no
 CH_sp3 -  Cm_dmf [LENNARD_JONES] p_0/k_B:  36.87818 [K], p_1: 4.23500 [A], shift/k_B:  -0.19325024 [K], tailcorrection: no
 CH_sp3 -   O_dmf [LENNARD_JONES] p_0/k_B:  41.23106 [K], p_1: 3.81500 [A], shift/k_B:  -0.11552802 [K], tailcorrection: no
 CH_sp3 -   H_dmf [LENNARD_JONES] p_0/k_B:  11.66190 [K], p_1: 3.43500 [A], shift/k_B:  -0.01741678 [K], tailcorrection: no
  C_sp3 -   C_sp3 [LENNARD_JONES] p_0/k_B:   0.80000 [K], p_1: 6.38000 [A], shift/k_B:  -0.04831734 [K], tailcorrection: no
  C_sp3 -   H_com [LENNARD_JONES] p_0/k_B:   5.41849 [K], p_1: 4.66900 [A], shift/k_B:  -0.05093277 [K], tailcorrection: no
  C_sp3 -   C_co2 [LENNARD_JONES] p_0/k_B:   4.64758 [K], p_1: 4.59000 [A], shift/k_B:  -0.03944380 [K], tailcorrection: no
  C_sp3 -   O_co2 [LENNARD_JONES] p_0/k_B:   7.94984 [K], p_1: 4.71500 [A], shift/k_B:  -0.07924330 [K], tailcorrection: no
  C_sp3 -    N_n2 [LENNARD_JONES] p_0/k_B:   5.36656 [K], p_1: 4.84500 [A], shift/k_B:  -0.06294771 [K], tailcorrection: no
  C_sp3 -      Ar [LENNARD_JONES] p_0/k_B:   9.78979 [K], p_1: 4.86000 [A], shift/k_B:  -0.11697365 [K], tailcorrection: no
  C_sp3 -      Ow [LENNARD_JONES] p_0/k_B:   8.46796 [K], p_1: 4.73850 [A], shift/k_B:  -0.08695713 [K], tailcorrection: no
  C_sp3 -  C_benz [LENNARD_JONES] p_0/k_B:   4.95580 [K], p_1: 4.99000 [A], shift/k_B:  -0.06934106 [K], tailcorrection: no
  C_sp3 -  H_benz [LENNARD_JONES] p_0/k_B:   4.51221 [K], p_1: 4.37000 [A], shift/k_B:  -0.02853576 [K], tailcorrection: no
  C_sp3 -   N_dmf [LENNARD_JONES] p_0/k_B:   8.00000 [K], p_1: 4.79000 [A], shift/k_B:  -0.08764131 [K], tailcorrection: no
  C_sp3 -  Co_dmf [LENNARD_JONES] p_0/k_B:   6.32456 [K], p_1: 5.04000 [A], shift/k_B:  -0.09392731 [K], tailcorrection: no
  C_sp3 -  Cm_dmf [LENNARD_JONES] p_0/k_B:   8.00000 [K], p_1: 5.09000 [A], shift/k_B:  -0.12603066 [K], tailcorrection: no
  C_sp3 -   O_dmf [LENNARD_JONES] p_0/k_B:   8.94427 [K], p_1: 4.67000 [A], shift/k_B:  -0.08418233 [K], tailcorrection: no
  C_sp3 -   H_dmf [LENNARD_JONES] p_0/k_B:   2.52982 [K], p_1: 4.29000 [A], shift/k_B:  -0.01432247 [K], tailcorrection: no
  H_com -   H_com [LENNARD_JONES] p_0/k_B:  36.70000 [K], p_1: 2.95800 [A], shift/k_B:  -0.02235574 [K], tailcorrection: no
  H_com -   C_co2 [LENNARD_JONES] p_0/k_B:  31.47856 [K], p_1: 2.87900 [A], shift/k_B:  -0.01630080 [K], tailcorrection: no
  H_com -   O_co2 [LENNARD_JONES] p_0/k_B:  53.84515 [K], p_1: 3.00400 [A], shift/k_B:  -0.03598104 [K], tailcorrection: no
  H_com -    N_n2 [LENNARD_JONES] p_0/k_B:  36.34831 [K], p_1: 3.13400 [A], shift/k_B:  -0.03131734 [K], tailcorrection: no
  H_com -      Ar [LENNARD_JONES] p_0/k_B:  66.30731 [K], p_1: 3.14900 [A], shift/k_B:  -0.05878971 [K], tailcorrection: no
  H_com -      Ow [LENNARD_JONES] p_0/k_B:  57.35443 [K], p_1: 3.02750 [A], shift/k_B:  -0.04016022 [K], tailcorrection: no
  H_com -  C_benz [LENNARD_JONES] p_0/k_B:  33.56620 [K], p_1: 3.27900 [A], shift/k_B:  -0.03793396 [K], tailcorrection: no
  H_com -  H_benz [LENNARD_JONES] p_0/k_B:  30.56166 [K], p_1: 2.65900 [A], shift/k_B:  -0.00982318 [K], tailcorrection: no
  H_com -   N_dmf [LENNARD_JONES] p_0/k_B:  54.18487 [K], p_1: 3.07900 [A], shift/k_B:  -0.04198094 [K], tailcorrection: no
  H_com -  Co_dmf [LENNARD_JONES] p_0/k_B:  42.83690 [K], p_1: 3.32900 [A], shift/k_B:  -0.05301107 [K], tailcorrection: no
  H_com -  Cm_dmf [LENNARD_JONES] p_0/k_B:  54.18487 [K], p_1: 3.37900 [A], shift/k_B:  -0.07332640 [K], tailcorrection: no
  H_com -   O_dmf [LENNARD_JONES] p_0/k_B:  60.58052 [K], p_1: 2.95900 [A], shift/k_B:  -0.03697743 [K], tailcorrection: no
  H_com -   H_dmf [LENNARD_JONES] p_0/k_B:  17.13476 [K], p_1: 2.57900 [A], shift/k_B:  -0.00458519 [K], tailcorrection: no
  C_co2 -   C_co2 [LENNARD_JONES] p_0/k_B:  27.00000 [K], p_1: 2.80000 [A], shift/k_B:  -0.01183217 [K], tailcorrection: no
  C_co2 -   O_co2 [LENNARD_JONES] p_0/k_B:  46.18441 [K], p_1: 2.92500 [A], shift/k_B:  -0.02630201 [K], tailcorrection: no
  C_co2 -    N_n2 [LENNARD_JONES] p_0/k_B:  31.17691 [K], p_1: 3.05500 [A], shift/k_B:  -0.02304731 [K], tailcorrection: no
  C_co2 -      Ar [LENNARD_JONES] p_0/k_B:  56.87354 [K], p_1: 3.07000 [A], shift/k_B:  -0.04329702 [K], tailcorrection: no
  C_co2 -      Ow [LENNARD_JONES] p_0/k_B:  49.19442 [K], p_1: 2.94850 [A], shift/k_B:  -0.02939395 [K], tailcorrection: no
  C_co2 -  C_benz [LENNARD_JONES] p_0/k_B:  28.79062 [K], p_1: 3.20000 [A], shift/k_B:  -0.02810898 [K], tailcorrection: no
  C_co2 -  H_benz [LENNARD_JONES] p_0/k_B:  26.21355 [K], p_1: 2.58000 [A], shift/k_B:  -0.00703097 [K], tailcorrection: no
  C_co2 -   N_dmf [LENNARD_JONES] p_0/k_B:  46.47580 [K], p_1: 3.00000 [A], shift/k_B:  -0.03080935 [K], tailcorrection: no
  C_co2 -  Co_dmf [LENNARD_JONES] p_0/k_B:  36.74235 [K], p_1: 3.25000 [A], shift/k_B:  -0.03936868 [K], tailcorrection: no
  C_co2 -  Cm_dmf [LENNARD_JONES] p_0/k_B:  46.47580 [K], p_1: 3.30000 [A], shift/k_B:  -0.05457367 [K], tailcorrection: no
  C_co2 -   O_dmf [LENNARD_JONES] p_0/k_B:  51.96152 [K], p_1: 2.88000 [A], shift/k_B:  -0.02696377 [K], tailcorrection: no
  C_co2 -   H_dmf [LENNARD_JONES] p_0/k_B:  14.69694 [K], p_1: 2.50000 [A], shift/k_B:  -0.00326319 [K], tailcorrection: no
  O_co2 -   O_co2 [LENNARD_JONES] p_0/k_B:  79.00000 [K], p_1: 3.05000 [A], shift/k_B:  -0.05782915 [K], tailcorrection: no
  O_co2 -    N_n2 [LENNARD_JONES] p_0/k_B:  53.32917 [K], p_1: 3.18000 [A], shift/k_B:  -0.05014476 [K], tailcorrection: no
  O_co2 -      Ar [LENNARD_JONES] p_0/k_B:  97.28412 [K], p_1: 3.19500 [A], shift/k_B:  -0.09409407 [K], tailcorrection: no
  O_co2 -      Ow [LENNARD_JONES] p_0/k_B:  84.14872 [K], p_1: 3.07350 [A], shift/k_B:  -0.06450060 [K], tailcorrection: no
  O_co2 -  C_benz [LENNARD_JONES] p_0/k_B:  49.24733 [K], p_1: 3.32500 [A], shift/k_B:  -0.06050613 [K], tailcorrection: no
  O_co2 -  H_benz [LENNARD_JONES] p_0/k_B:  44.83916 [K], p_1: 2.70500 [A], shift/k_B:  -0.01597433 [K], tailcorrection: no
  O_co2 -   N_dmf [LENNARD_JONES] p_0/k_B:  79.49843 [K], p_1: 3.12500 [A], shift/k_B:  -0.06732353 [K], tailcorrection: no
  O_co2 -  Co_dmf [LENNARD_JONES] p_0/k_B:  62.84903 [K], p_1: 3.37500 [A], shift/k_B:  -0.08444918 [K], tailcorrection: no
  O_co2 -  Cm_dmf [LENNARD_JONES] p_0/k_B:  79.49843 [K], p_1: 3.42500 [A], shift/k_B:  -0.11667095 [K], tailcorrection: no
  O_co2 -   O_dmf [LENNARD_JONES] p_0/k_B:  88.88194 [K], p_1: 3.00500 [A], shift/k_B:  -0.05951245 [K], tailcorrection: no
  O_co2 -   H_dmf [LENNARD_JONES] p_0/k_B:  25.13961 [K], p_1: 2.62500 [A], shift/k_B:  -0.00748001 [K], tailcorrection: no
   N_n2 -    N_n2 [LENNARD_JONES] p_0/k_B:  36.00000 [K], p_1: 3.31000 [A], shift/k_B:  -0.04304679 [K], tailcorrection: no
   N_n2 -      Ar [LENNARD_JONES] p_0/k_B:  65.67191 [K], p_1: 3.32500 [A], shift/k_B:  -0.08068564 [K], tailcorrection: no
   N_n2 -      Ow [LENNARD_JONES] p_0/k_B:  56.80482 [K], p_1: 3.20350 [A], shift/k_B:  -0.05582478 [K], tailcorrection: no
   N_n2 -  C_benz [LENNARD_JONES] p_0/k_B:  33.24455 [K], p_1: 3.45500 [A], shift/k_B:  -0.05140921 [K], tailcorrection: no
   N_n2 -  H_benz [LENNARD_JONES] p_0/k_B:  30.26880 [K], p_1: 2.83500 [A], shift/k_B:  -0.01429099 [K], tailcorrection: no
   N_n2 -   N_dmf [LENNARD_JONES] p_0/k_B:  53.66563 [K], p_1: 3.25500 [A], shift/k_B:  -0.05803432 [K], tailcorrection: no
   N_n2 -  Co_dmf [LENNARD_JONES] p_0/k_B:  42.42641 [K], p_1: 3.50500 [A], shift/k_B:  -0.07151241 [K], tailcorrection: no
   N_n2 -  Cm_dmf [LENNARD_JONES] p_0/k_B:  53.66563 [K], p_1: 3.55500 [A], shift/k_B:  -0.09847697 [K], tailcorrection: no
   N_n2 -   O_dmf [LENNARD_JONES] p_0/k_B:  60.00000 [K], p_1: 3.13500 [A], shift/k_B:  -0.05179442 [K], tailcorrection: no
   N_n2 -   H_dmf [LENNARD_JONES] p_0/k_B:  16.97056 [K], p_1: 2.75500 [A], shift/k_B:  -0.00674812 [K], tailcorrection: no
     Ar -      Ar [LENNARD_JONES] p_0/k_B: 119.80000 [K], p_1: 3.34000 [A], shift/k_B:  -0.15121633 [K], tailcorrection: no
     Ar -      Ow [LENNARD_JONES] p_0/k_B: 103.62448 [K], p_1: 3.21850 [A], shift/k_B:  -0.10473066 [K], tailcorrection: no
     Ar -  C_benz [LENNARD_JONES] p_0/k_B:  60.64536 [K], p_1: 3.47000 [A], shift/k_B:  -0.09625032 [K], tailcorrection: no
     Ar -  H_benz [LENNARD_JONES] p_0/k_B:  55.21694 [K], p_1: 2.85000 [A], shift/k_B:  -0.02690845 [K], tailcorrection: no
     Ar -   N_dmf [LENNARD_JONES] p_0/k_B:  97.89791 [K], p_1: 3.27000 [A], shift/k_B:  -0.10882767 [K], tailcorrection: no
     Ar -  Co_dmf [LENNARD_JONES] p_0/k_B:  77.39509 [K], p_1: 3.52000 [A], shift/k_B:  -0.13383869 [K], tailcorrection: no
     Ar -  Cm_dmf [LENNARD_JONES] p_0/k_B:  97.89791 [K], p_1: 3.57000 [A], shift/k_B:  -0.18423766 [K], tailcorrection: no
     Ar -   O_dmf [LENNARD_JONES] p_0/k_B: 109.45319 [K], p_1: 3.15000 [A], shift/k_B:  -0.09722891 [K], tailcorrection: no
     Ar -   H_dmf [LENNARD_JONES] p_0/k_B:  30.95804 [K], p_1: 2.77000 [A], shift/k_B:  -0.01271767 [K], tailcorrection: no
     Ow -      Ow [LENNARD_JONES] p_0/k_B:  89.63300 [K], p_1: 3.09700 [A], shift/k_B:  -0.07191644 [K], tailcorrection: no
     Ow -  C_benz [LENNARD_JONES] p_0/k_B:  52.45696 [K], p_1: 3.34850 [A], shift/k_B:  -0.06723044 [K], tailcorrection: no
     Ow -  H_benz [LENNARD_JONES] p_0/k_B:  47.76149 [K], p_1: 2.72850 [A], shift/k_B:  -0.01792178 [K], tailcorrection: no
     Ow -   N_dmf [LENNARD_JONES] p_0/k_B:  84.67963 [K], p_1: 3.14850 [A], shift/k_B:  -0.07500757 [K], tailcorrection: no
     Ow -  Co_dmf [LENNARD_JONES] p_0/k_B:  66.94513 [K], p_1: 3.39850 [A], shift/k_B:  -0.09377577 [K], tailcorrection: no
     Ow -  Cm_dmf [LENNARD_JONES] p_0/k_B:  84.67963 [K], p_1: 3.44850 [A], shift/k_B:  -0.12947753 [K], tailcorrection: no
     Ow -   O_dmf [LENNARD_JONES] p_0/k_B:  94.67471 [K], p_1: 3.02850 [A], shift/k_B:  -0.06642375 [K], tailcorrection: no
     Ow -   H_dmf [LENNARD_JONES] p_0/k_B:  26.77805 [K], p_1: 2.64850 [A], shift/k_B:  -0.00840514 [K], tailcorrection: no
 C_benz -  C_benz [LENNARD_JONES] p_0/k_B:  30.70000 [K], p_1: 3.60000 [A], shift/k_B:  -0.06074892 [K], tailcorrection: no
 C_benz -  H_benz [LENNARD_JONES] p_0/k_B:  27.95201 [K], p_1: 2.98000 [A], shift/k_B:  -0.01780089 [K], tailcorrection: no
 C_benz -   N_dmf [LENNARD_JONES] p_0/k_B:  49.55805 [K], p_1: 3.40000 [A], shift/k_B:  -0.06960417 [K], tailcorrection: no
 C_benz -  Co_dmf [LENNARD_JONES] p_0/k_B:  39.17908 [K], p_1: 3.65000 [A], shift/k_B:  -0.08421278 [K], tailcorrection: no
 C_benz -  Cm_dmf [LENNARD_JONES] p_0/k_B:  49.55805 [K], p_1: 3.70000 [A], shift/k_B:  -0.11557696 [K], tailcorrection: no
 C_benz -   O_dmf [LENNARD_JONES] p_0/k_B:  55.40758 [K], p_1: 3.28000 [A], shift/k_B:  -0.06273204 [K], tailcorrection: no
 C_benz -   H_dmf [LENNARD_JONES] p_0/k_B:  15.67163 [K], p_1: 2.90000 [A], shift/k_B:  -0.00847703 [K], tailcorrection: no
 H_benz -  H_benz [LENNARD_JONES] p_0/k_B:  25.45000 [K], p_1: 2.36000 [A], shift/k_B:  -0.00399892 [K], tailcorrection: no
 H_benz -   N_dmf [LENNARD_JONES] p_0/k_B:  45.12206 [K], p_1: 2.78000 [A], shift/k_B:  -0.01894141 [K], tailcorrection: no
 H_benz -  Co_dmf [LENNARD_JONES] p_0/k_B:  35.67212 [K], p_1: 3.03000 [A], shift/k_B:  -0.02510201 [K], tailcorrection: no
 H_benz -  Cm_dmf [LENNARD_JONES] p_0/k_B:  45.12206 [K], p_1: 3.08000 [A], shift/k_B:  -0.03502749 [K], tailcorrection: no
 H_benz -   O_dmf [LENNARD_JONES] p_0/k_B:  50.44799 [K], p_1: 2.66000 [A], shift/k_B:  -0.01625170 [K], tailcorrection: no
 H_benz -   H_dmf [LENNARD_JONES] p_0/k_B:  14.26885 [K], p_1: 2.28000 [A], shift/k_B:  -0.00182299 [K], tailcorrection: no
  N_dmf -   N_dmf [LENNARD_JONES] p_0/k_B:  80.00000 [K], p_1: 3.20000 [A], shift/k_B:  -0.07810593 [K], tailcorrection: no
  N_dmf -  Co_dmf [LENNARD_JONES] p_0/k_B:  63.24555 [K], p_1: 3.45000 [A], shift/k_B:  -0.09695678 [K], tailcorrection: no
  N_dmf -  Cm_dmf [LENNARD_JONES] p_0/k_B:  80.00000 [K], p_1: 3.50000 [A], shift/k_B:  -0.13369552 [K], tailcorrection: no
  N_dmf -   O_dmf [LENNARD_JONES] p_0/k_B:  89.44272 [K], p_1: 3.08000 [A], shift/k_B:  -0.06943288 [K], tailcorrection: no
  N_dmf -   H_dmf [LENNARD_JONES] p_0/k_B:  25.29822 [K], p_1: 2.70000 [A], shift/k_B:  -0.00891322 [K], tailcorrection: no
 Co_dmf -  Co_dmf [LENNARD_JONES] p_0/k_B:  50.00000 [K], p_1: 3.70000 [A], shift/k_B:  -0.11660766 [K], tailcorrection: no
 Co_dmf -  Cm_dmf [LENNARD_JONES] p_0/k_B:  63.24555 [K], p_1: 3.75000 [A], shift/k_B:  -0.15986120 [K], tailcorrection: no
 Co_dmf -   O_dmf [LENNARD_JONES] p_0/k_B:  70.71068 [K], p_1: 3.33000 [A], shift/k_B:  -0.08766292 [K], tailcorrection: no
 Co_dmf -   H_dmf [LENNARD_JONES] p_0/k_B:  20.00000 [K], p_1: 2.95000 [A], shift/k_B:  -0.01198663 [K], tailcorrection: no
 Cm_dmf -  Cm_dmf [LENNARD_JONES] p_0/k_B:  80.00000 [K], p_1: 3.80000 [A], shift/k_B:  -0.21892448 [K], tailcorrection: no
 Cm_dmf -   O_dmf [LENNARD_JONES] p_0/k_B:  89.44272 [K], p_1: 3.38000 [A], shift/k_B:  -0.12125457 [K], tailcorrection: no
 Cm_dmf -   H_dmf [LENNARD_JONES] p_0/k_B:  25.29822 [K], p_1: 3.00000 [A], shift/k_B:  -0.01677049 [K], tailcorrection: no
  O_dmf -   O_dmf [LENNARD_JONES] p_0/k_B: 100.00000 [K], p_1: 2.96000 [A], shift/k_B:  -0.06116233 [K], tailcorrection: no
  O_dmf -   H_dmf [LENNARD_JONES] p_0/k_B:  28.28427 [K], p_1: 2.58000 [A], shift/k_B:  -0.00758637 [K], tailcorrection: no
  H_dmf -   H_dmf [LENNARD_JONES] p_0/k_B:   8.00000 [K], p_1: 2.20000 [A], shift/k_B:  -0.00082493 [K], tailcorrection: no


MoleculeDefinitions:
===========================================================================
Component 0 [N2] (Adsorbate molecule)

	MoleculeDefinitions: TraPPE
	Component contains (at least some) atoms which are charged
	Component contains no atoms with point dipoles (polarization)
	Component has a net charge of 0.000000

	Ideal chain Rosenbluth weight: 1
	Ideal chain total energy: 0.000000

	Critical temparure [K]: 126.192000
	Critical pressure [Pa]: 3395800.000000
	Acentric factor [-]: 0.037200

	RXMC partition factor ln(q/V) [ln(A^(-3))]:       0.0000000000

	Vapour=stable, Liquid=metastable

	MolFraction:           1.0000000000 [-]
	Compressibility:       0.0000000000 [-]

	Density of the bulk fluid phase:       0.0000000000 [kg/m^3]


	Amount of excess molecules:       0.0000000000 [-]

	Conversion factor molecules/unit cell -> mol/kg:       0.4577974814 [-]
	Conversion factor molecules/unit cell -> mg/g:      12.8245005887 [-]
	Conversion factor molecules/unit cell -> cm^3 STP/gr:      10.2610616450 [-]
	Conversion factor molecules/unit cell -> cm^3 STP/cm^3:       9.0630509668 [-]
	Conversion factor mol/kg -> cm^3 STP/gr:      22.4139757476 [-]
	Conversion factor mol/kg -> cm^3 STP/cm^3:      19.7970747664 [-]

	Partial pressure: -16605402.00000000000000 [Pa]
	                    -124540.51499999999942 [Torr]
	                       -166.05402000000001 [bar]
	                       -163.88257586972614 [atm]

	Fugacity coefficient:      -1.0000000000 [-]

	Partial fugacity:  16605402.00000000000000 [Pa]
	                     124540.51499999999942 [Torr]
	                        166.05402000000001 [bar]
	                        163.88257586972614 [atm]

	Molecule contains 3 number of atoms
		atom:    0  is of type:   22 [      N_n2] (group: 0)
		atom:    1  is of type:   23 [     N_com] (group: 0)
		atom:    2  is of type:   22 [      N_n2] (group: 0)

	Molecule contains 0 chirality centers

	Molecule contains 1 number of groups

		group: 0 containing: 3 elements
		-------------------------------------------------
		the group is rigid and linear
		Mass: 28.013480 [a.u.]
		Mass: 11.327204 [kg/m^3]

		Rotational Degrees of freedom: 2
		Diagonalized inertia vector:       8.4740777000
		                                   8.4740777000
		                                   0.0000000000
		number of atoms: 3
			element: 0 atom: 0 [      N_n2] Charge: -0.404800 Anisotropy: 0.000000 Position:  0.000000 -0.000000  0.550000 Connectivity: 1 (1 )
			element: 1 atom: 1 [     N_com] Charge:  0.809600 Anisotropy: 0.000000 Position:  0.000000 -0.000000  0.000000 Connectivity: 2 (0 2 )
			element: 2 atom: 2 [      N_n2] Charge: -0.404800 Anisotropy: 0.000000 Position:  0.000000 -0.000000 -0.550000 Connectivity: 1 (1 )
		number of permanent dipoles: 0
		number of polarizabilities: 0

		Dipole:           0.0000000000 [D]
		Quadrupole:       0.5881622790       0.5881622790      -1.1763245579 [D Angstrom]
		Quadrupole tensor [D Angstrom]
				       0.5881622790       0.0000000000       0.0000000000
				       0.0000000000       0.5881622790       0.0000000000
				       0.0000000000       0.0000000000      -1.1763245579

	Starting bead for growth               : 0

	Degrees of freedom                     : 0
	Translational degrees of freedom       : 0
	Rotational degrees of freedom          : 0
	Vibrational degrees of freedom         : 0
	Constraint degrees of freedom          : 0

	Number of atoms                        : 3

	Number of constraint bonds             : 0
	Number of constraint bends             : 0
	Number of constraint inversion bends   : 0
	Number of constraint torsions          : 0
	Number of constraint improper torsions : 0
	Number of constraint improper torsions : 0

	Number of bonds                        : 2
	Number of Urey-Bradleys                : 0
	Number of bends                        : 0
	Number of inversion bends              : 0
	Number of torsions                     : 0
	Number of improper torsions            : 0
	Number of improper torsions            : 0

	Number of bond/bond cross terms        : 0
	Number of bond/bend cross terms        : 0
	Number of bend/bend cross terms        : 0
	Number of stretch/torsion cross terms  : 0
	Number of bend/torsion cross terms     : 0

	Number of charges                      : 3
	Number of bond-dipoles                 : 0

	Number of intra Van der Waals                             : 0
	Number of intra charge-charge Coulomb                     : 0
	Number of intra charge-bonddipole Coulomb                 : 0
	Number of intra bonddipole-bonddipole Coulomb             : 0

	Number of excluded intra charge-charge Coulomb                     : 3
	Number of excluded intra charge-bonddipole Coulomb                 : 0
	Number of excluded intra bonddipole-bonddipole Coulomb             : 0

	Number of cbmc-config moves                               : 0

	Particle Moves:             
		ProbabilityTranslationMove:                  0.000000
			TranslationDirection:      XYZ
		Percentage of random translation moves:            0.000000
		Percentage of rotation moves:                      0.000000
		Percentage of random rotation moves:               0.000000
		Percentage of partial reinsertion moves:           0.000000
		Percentage of reinsertion moves:                   0.000000
		Percentage of reinsertion-in-place moves:          0.000000
		Percentage of reinsertion-in-plane moves:          0.000000
		Percentage of identity-change moves:               0.000000
		Percentage of swap (insert/delete) moves:          0.000000
		Percentage of CF swap lambda moves:                0.000000
		Percentage of CB/CFMC swap lambda moves:           0.000000
		Percentage of Widom insertion moves:               0.000000
		Percentage of CF-Widom insertion moves:            0.000000
		Percentage of Gibbs Widom insertion moves:         0.000000
		Percentage of surface-area moves:                  100.000000
		Percentage of Gibbs particle-transfer moves:       0.000000
		Percentage of Gibbs identity-change moves:         0.000000
		Percentage of CF Gibbs lambda-transfer moves:      0.000000
		Percentage of CB/CFMC Gibbs lambda-transfer moves: 0.000000
		Percentage of exchange frac./int. particle moves:  0.000000
		Percentage of fractional mol. to other box moves:  0.000000
		Percentage of lambda-change moves:                 0.000000
		Percentage of fractional to integer moves:         0.000000

	System Moves:
		Percentage of parallel-tempering moves:            0.000000
		Percentage of hyper-parallel-tempering moves:      0.000000
		Percentage of parallel-mol-fraction moves:         0.000000
			   Component A: 0 B: 1
		Percentage of chiral inversion moves:              0.000000
		Percentage of Hybrid-NVE moves:                    0.000000
		Percentage of Hybrid-NPH moves:                    0.000000
		Percentage of Hybrid-NPHPR moves:                  0.000000
		Percentage of volume-change moves:                 0.000000
		Percentage of box-shape-change moves:              0.000000
		Percentage of Gibbs volume-change moves:           0.000000
		Percentage of framework-change moves:              0.000000
		Percentage of framework-shift moves:               0.000000
		Percentage of reactive MC moves:                   0.000000

	Moves are restricted: No
	No biased sampling used for this component

	Number of Bonds: 2
	--------------------------------------------
	Bond interaction 0: A=0 B=1 Type:RIGID_BOND
		r_0=0.5500000000       [A]
	Bond interaction 1: A=1 B=2 Type:RIGID_BOND
		r_0=0.5500000000       [A]


	number of identity-config changes: 1
	--------------------------------------------
	nr fixed 1: 0 

	Number of pockets blocked in a unitcell: 0
		Pockets are NOT blocked for this component



Framework Status
===========================================================================
Lowenstein's rule obeyed by framework
	Framework is modelled as: rigid

	Number of charges:                               162
	Number of bonddipoles:                           0


System Properties
===========================================================================
Unit cell size: 26.136000 26.136000 6.942000
Cell angles (radians)  alpha: 1.570796 beta: 1.570796 gamma: 2.094395
Cell angles (degrees)  alpha: 90.000000 beta: 90.000000 gamma: 120.000000
Number of unitcells [a]: 1
Number of unitcells [b]: 1
Number of unitcells [c]: 1

TRICLINIC Boundary conditions: alpha!=90 or beta!=90 or gamma!=90

Cartesian axis A is collinear with crystallographic axis a
Cartesian axis B is collinear with (axb)xA
Cartesian axis C is collinear with (axb)

lengths of cell vectors:
 26.13600  26.13600   6.94200
cosines of cell angles:
  0.00000   0.00000  -0.50000
perpendicular cell widths:
 22.63444  22.63444   6.94200
volume of the cell:  4106.704782426044 (A^3)

Orthogonalization matrix Box
Transforms fractional coordinates abc into orthonormal Cartesian coordinates xyz
Deorthogonalization matrix InverseBox
Transforms orthonormal Cartesian coordinates xyz into fractional coordinates xyz

Box[0]:
	   26.136000000000   -13.068000000000     0.000000000000
	    0.000000000000    22.634439953310     0.000000000000
	    0.000000000000     0.000000000000     6.942000000000

Inverse box[0]:
	    0.038261401898     0.022090230685    -0.000000000000
	    0.000000000000     0.044180461370    -0.000000000000
	    0.000000000000    -0.000000000000     0.144050705848


Unitcell box[0]:
	   26.136000000000   -13.068000000000     0.000000000000
	    0.000000000000    22.634439953310     0.000000000000
	    0.000000000000     0.000000000000     6.942000000000

Unitcell inverse box[0]:
	    0.038261401898     0.022090230685    -0.000000000000
	    0.000000000000     0.044180461370    -0.000000000000
	    0.000000000000    -0.000000000000     0.144050705848

lengths of cell vectors (inverse box):
  0.03826   0.04940   0.14405
cosines of cell angles (inverse box):
 -0.00000  -0.00000   0.44721
perpendicular cell widths (inverse):
  0.03422   0.04418   0.14405
volume of the cell:  4106.704782426044 (A^3)

No replicas are used
Framework is simulated as 'rigid'
Number of framework atoms: 162
Number of framework atoms in the unit cell: 162
Framework Mass:  2184.371999999999 [g/mol]
Framework Density:   883.246907613792 [kg/m^3]    1.1321862452954 [cm^3/g]
Helium void fraction:    0.00000000
Available pore volume:    0.00000000 [A^3]    0.00000000 [cm^3/g]
Conversion factor from molecule/unit cell -> kmol/m^3: 0.404348, kmol/m^3 accesible pore volume: inf

Number Of Frameworks (per system): 1
----------------------------------------------------------------------
Framework name: MgMOF-74
Space group: 148
	Identifier: 436
	short international Hermann-Mauguin symbol: R -3:H
	long international Hermann-Mauguin symbol: R -3:H
	Hall symbol: -R 3
	Number of lattice translations: 3 [ (0,0,0) (0.666667,0.333333,0.333333) (0.333333,0.666667,0.666667) ]
	acentric/centric: acentric
	chiral: yes
	enantiomorphic: no
	number of operators: 18
		'x,y,z'
		'-y,x-y,z'
		'-x+y,-x,z'
		'-x,-y,-z'
		'y,-x+y,-z'
		'x-y,x,-z'
		'x+2/3,y+1/3,z+1/3'
		'-y+2/3,x-y+1/3,z+1/3'
		'-x+y+2/3,-x+1/3,z+1/3'
		'-x+2/3,-y+1/3,-z+1/3'
		'y+2/3,-x+y+1/3,-z+1/3'
		'x-y+2/3,x+1/3,-z+1/3'
		'x+1/3,y+2/3,z+2/3'
		'-y+1/3,x-y+2/3,z+2/3'
		'-x+y+1/3,-x+2/3,z+2/3'
		'-x+1/3,-y+2/3,-z+2/3'
		'y+1/3,-x+y+2/3,-z+2/3'
		'x-y+1/3,x+2/3,-z+2/3'
Framework is simulated as 'rigid'
Shift: 0.000000 0.000000 0.000000
Number of framework atoms: 162
Number of asymmetric atoms: 9
Number of free framework atoms: 0
Number of fixed framework atoms: 162
Number of framework atoms in the unit cell: 162
Framework Mass:  2184.371999999999 [g/mol]
Framework Density:   883.246907613792 [kg/m^3]
Framework has net charge: 0.000000
         largest charge : 1.563700
         smallest charge: -0.832800

Using FULL Host-guest interaction calculation (for testing purposes)

Current Atom Status
===========================================================================
Number of framework atoms        : 162
Number of cations molecules      : 0
Number of adsorbate molecules    : 0
Component    0 :    0 molecules
Pseudo Atoms    0 [    UNIT]:    0 atoms
Pseudo Atoms    1 [      He]:    0 atoms
Pseudo Atoms    2 [     Mg1]:   18 atoms
Pseudo Atoms    3 [      O1]:   18 atoms
Pseudo Atoms    4 [      O2]:   18 atoms
Pseudo Atoms    5 [      O3]:   18 atoms
Pseudo Atoms    6 [      C1]:   18 atoms
Pseudo Atoms    7 [      C2]:   18 atoms
Pseudo Atoms    8 [      C3]:   18 atoms
Pseudo Atoms    9 [      C4]:   18 atoms
Pseudo Atoms   10 [      H1]:   18 atoms
Pseudo Atoms   11 [ CH4_sp3]:    0 atoms
Pseudo Atoms   12 [ CH3_sp3]:    0 atoms
Pseudo Atoms   13 [ CH2_sp3]:    0 atoms
Pseudo Atoms   14 [  CH_sp3]:    0 atoms
Pseudo Atoms   15 [   C_sp3]:    0 atoms
Pseudo Atoms   16 [    H_h2]:    0 atoms
Pseudo Atoms   17 [   H_com]:    0 atoms
Pseudo Atoms   18 [   C_co2]:    0 atoms
Pseudo Atoms   19 [   O_co2]:    0 atoms
Pseudo Atoms   20 [    O_o2]:    0 atoms
Pseudo Atoms   21 [   O_com]:    0 atoms
Pseudo Atoms   22 [    N_n2]:    0 atoms
Pseudo Atoms   23 [   N_com]:    0 atoms
Pseudo Atoms   24 [      Ar]:    0 atoms
Pseudo Atoms   25 [      Ow]:    0 atoms
Pseudo Atoms   26 [      Hw]:    0 atoms
Pseudo Atoms   27 [      Hw]:    0 atoms
Pseudo Atoms   28 [      Lw]:    0 atoms
Pseudo Atoms   29 [      Lw]:    0 atoms
Pseudo Atoms   30 [  C_benz]:    0 atoms
Pseudo Atoms   31 [  H_benz]:    0 atoms
Pseudo Atoms   32 [   N_dmf]:    0 atoms
Pseudo Atoms   33 [  Co_dmf]:    0 atoms
Pseudo Atoms   34 [  Cm_dmf]:    0 atoms
Pseudo Atoms   35 [   O_dmf]:    0 atoms
Pseudo Atoms   36 [   H_dmf]:    0 atoms
Pseudo Atoms   37 [      Na]:    0 atoms
Pseudo Atoms   38 [      Cl]:    0 atoms


Current (initial full energy) Energy Status
===========================================================================

Internal energy:
Host stretch energy:                                            0.00000000
Host UreyBradley energy:                                        0.00000000
Host bend energy:                                               0.00000000
Host inversion-bend energy:                                     0.00000000
Host torsion energy:                                            0.00000000
Host improper torsion energy:                                   0.00000000
Host out-of-plane energy:                                       0.00000000
Host stretch/stretch energy:                                    0.00000000
Host bend/bend energy:                                          0.00000000
Host stretch/bend energy:                                       0.00000000
Host stretch/torsion energy:                                    0.00000000
Host bend/torsion energy:                                       0.00000000

Adsorbate stretch energy:                                       0.00000000
Adsorbate UreyBradley energy:                                   0.00000000
Adsorbate bend energy:                                          0.00000000
Adsorbate inversion-bend energy:                                0.00000000
Adsorbate torsion energy:                                       0.00000000
Adsorbate improper torsion energy:                              0.00000000
Adsorbate out-of-plane energy:                                  0.00000000
Adsorbate stretch/stretch energy:                               0.00000000
Adsorbate bend/bend energy:                                     0.00000000
Adsorbate stretch/bend energy:                                  0.00000000
Adsorbate stretch/torsion energy:                               0.00000000
Adsorbate bend/torsion energy:                                  0.00000000
Adsorbate intra VDW energy:                                     0.00000000
Adsorbate intra charge-charge Coulomb energy:                   0.00000000
Adsorbate intra charge-bonddipole Coulomb energy:               0.00000000
Adsorbate intra bonddipole-bonddipole Coulomb energy:           0.00000000

Cation stretch energy:                                          0.00000000
Cation UreyBradley energy:                                      0.00000000
Cation bend energy:                                             0.00000000
Cation inversion-bend energy:                                   0.00000000
Cation torsion energy:                                          0.00000000
Cation improper torsion energy:                                 0.00000000
Cation out-of-plane energy:                                     0.00000000
Cation stretch/stretch energy:                                  0.00000000
Cation bend/bend energy:                                        0.00000000
Cation stretch/bend energy:                                     0.00000000
Cation stretch/torsion energy:                                  0.00000000
Cation bend/torsion energy:                                     0.00000000
Cation intra VDW energy:                                        0.00000000
Cation intra charge-charge Coulomb energy:                      0.00000000
Cation intra charge-bonddipole Coulomb energy:                  0.00000000
Cation intra bonddipole-bonddipole Coulomb energy:              0.00000000

Host/Host energy:                                             0.00000000
	Host/Host VDW energy:                                         0.00000000
	Host/Host Coulomb energy:                                     0.00000000
	Host/Host charge-charge Real energy:                          0.00000000
	Host/Host charge-charge Fourier energy:                       0.00000000
	Host/Host charge-bonddipole Real energy:                      0.00000000
	Host/Host charge-bonddipole Fourier energy:                   0.00000000
	Host/Host bondipole-bonddipole Real energy:                   0.00000000
	Host/Host bondipole-bonddipole Fourier energy:                0.00000000

Host/Adsorbate energy:                                        0.00000000
	Host/Adsorbate VDW energy:                                    0.00000000
	Host/Adsorbate Coulomb energy:                                0.00000000
	Host/Adsorbate charge-charge Real energy:                     0.00000000
	Host/Adsorbate charge-charge Fourier energy:                  0.00000000
	Host/Adsorbate charge-bonddipole Real energy:                 0.00000000
	Host/Adsorbate charge-bonddipole Fourier energy:              0.00000000
	Host/Adsorbate bondipole-bonddipole Real energy:              0.00000000
	Host/Adsorbate bondipole-bonddipole Fourier energy:           0.00000000

Host/Cation energy:                                           0.00000000
	Host/Cation VDW energy:                                       0.00000000
	Host/Cation Coulomb energy:                                   0.00000000
	Host/Cation charge-charge Real energy:                        0.00000000
	Host/Cation charge-charge Fourier energy:                     0.00000000
	Host/Cation charge-bonddipole Real energy:                    0.00000000
	Host/Cation charge-bonddipole Fourier energy:                 0.00000000
	Host/Cation bondipole-bonddipole Real energy:                 0.00000000
	Host/Cation bondipole-bonddipole Fourier energy:              0.00000000

Adsorbate/Adsorbate energy:                                        0.00000000
	Adsorbate/Adsorbate VDW energy:                                    0.00000000
	Adsorbate/Adsorbate Coulomb energy:                                0.00000000
	Adsorbate/Adsorbate charge-charge Real energy:                     0.00000000
	Adsorbate/Adsorbate charge-charge Fourier energy:                  0.00000000
	Adsorbate/Adsorbate charge-bonddipole Real energy:                 0.00000000
	Adsorbate/Adsorbate charge-bonddipole Fourier energy:              0.00000000
	Adsorbate/Adsorbate bondipole-bonddipole Real energy:              0.00000000
	Adsorbate/Adsorbate bondipole-bonddipole Fourier energy:           0.00000000

Adsorbate/Cation energy:                                           0.00000000
	Adsorbate/Cation VDW energy:                                       0.00000000
	Adsorbate/Cation Coulomb energy:                                   0.00000000
	Adsorbate/Cation charge-charge Real energy:                        0.00000000
	Adsorbate/Cation charge-charge Fourier energy:                     0.00000000
	Adsorbate/Cation charge-bonddipole Real energy:                    0.00000000
	Adsorbate/Cation charge-bonddipole Fourier energy:                 0.00000000
	Adsorbate/Cation bondipole-bonddipole Real energy:                 0.00000000
	Adsorbate/Cation bondipole-bonddipole Fourier energy:              0.00000000

Cation/Cation energy:                                           0.00000000
	Cation/Cation VDW energy:                                       0.00000000
	Cation/Cation Coulomb energy:                                   0.00000000
	Cation/Cation charge-charge Real energy:                        0.00000000
	Cation/Cation charge-charge Fourier energy:                     0.00000000
	Cation/Cation charge-bonddipole Real energy:                    0.00000000
	Cation/Cation charge-bonddipole Fourier energy:                 0.00000000
	Cation/Cation bondipole-bonddipole Real energy:                 0.00000000
	Cation/Cation bondipole-bonddipole Fourier energy:              0.00000000

Polarization energy:
	Host polarization energy:                                     0.00000000
	Adsorbate polarization energy:                                0.00000000
	Cation polarization energy:                                   0.00000000
	Host back-polarization energy:                                     0.00000000
	Adsorbate back-polarization energy:                                0.00000000
	Cation back-polarization energy:                                   0.00000000

Tail-correction energy:                                       0.00000000

Distance constraints energy:                                  0.00000000
Angle constraints energy:                                     0.00000000
Dihedral constraints energy:                                  0.00000000
Inversion-bend constraints energy:                            0.00000000
Out-of-plane distance constraints energy:                     0.00000000
Exclusion constraints energy:                                 0.00000000

===================================================================
Total energy:     0.000000000000
	Total Van der Waals: 0.000000
	Total Coulomb: 0.000000

	Total Polarization: 0.000000







+++++++++++++++++++++++++++++++++++++++++++++++++++++++++++++++++++++++++
Starting simulation
+++++++++++++++++++++++++++++++++++++++++++++++++++++++++++++++++++++++++

Average Properties at Current cycle: 0 out of 10000
========================================================================================

Framework surface area:       0.0000000000 [m^2/g]        0.0000000000 [m^2/cm^3]       0.0000000000 [A^2]
	Framework 0 individual surface area:       0.0000000000 [m^2/g]        0.0000000000 [m^2/cm^3]       0.0000000000 [A^2]
	Cation surface area:                       0.0000000000 [m^2/g]        0.0000000000 [m^2/cm^3]       0.0000000000 [A^2]
Compressibility:               -nan [-]
Henry coefficients
	Component 0: 0 [mol/kg/Pa] (Rosenbluth factor new: 0 [-])
Energy <U_gh>_1-<U_h>_0 from Widom


Current cycle: 0 out of 10000
========================================================================================================

Net charge: 3.94129e-15 (F: 3.94129e-15, A: 0, C: 0)
Current Box:  26.13600 -13.06800   0.00000 [A]   Average Box:  26.13600 -13.06800   0.00000 [A]
               0.00000  22.63444   0.00000 [A]                  0.00000  22.63444   0.00000 [A]
               0.00000   0.00000   6.94200 [A]                  0.00000   0.00000   6.94200 [A]
Box-lengths:   26.13600  26.13600   6.94200 [A] Average:  26.13600  26.13600   6.94200 [A]
Box-angles:   90.00000  90.00000 120.00000 [degrees] Average:  90.00000  90.00000 120.00000 [degrees]
Volume: 4106.70478 [A^3] Average Volume: 4106.70478 [A^3]

Loadings per component:
----------------------------------------------------------------------------------------------------------------------------------------------------
Component 0 (N2), current number of integer/fractional/reaction molecules: 0/0/0 (avg.   0.00000), density:   0.00000 (avg.   0.00000) [kg/m^3]
	absolute adsorption:   0.00000 (avg.   0.00000) [mol/uc],   0.0000000000 (avg.   0.0000000000) [mol/kg],   0.0000000000 (avg.   0.0000000000) [mg/g]
	                       0.0000000000 (avg.   0.0000000000) [cm^3 STP/g],    0.0000000000 (avg.   0.0000000000) [cm^3 STP/cm^3]
	excess adsorption:     0.0000000000 (avg.   0.0000000000) [mol/uc],   0.0000000000 (avg.   0.0000000000) [mol/kg],   0.0000000000 (avg.   0.0000000000) [mg/g]
	                       0.0000000000 (avg.   0.0000000000) [cm^3 STP/g],    0.0000000000 (avg.   0.0000000000) [cm^3 STP/cm^3]
----------------------------------------------------------------------------------------------------------------------------------------------------
Degrees of freedom: 0 0 0 0
Number of Framework-atoms:    162
Number of Adsorbates:           0 (0 integer, 0 fractional, 0 reaction)
Number of Cations:              0 (0 integer, 0 fractional, 0 reaction)

Current total potential energy:                 0.0000000000 [K]  (avg.           0.0000000000)
	Current Host-Host energy:                     0.0000000000 [K]  (avg.           0.0000000000)
	Current Host-Adsorbate energy:                0.0000000000 [K]  (avg.           0.0000000000)
	Current Host-Cation energy:                   0.0000000000 [K]  (avg.           0.0000000000)
	Current Adsorbate-Adsorbate energy:           0.0000000000 [K]  (avg.           0.0000000000)
	Current Cation-Cation energy:                 0.0000000000 [K]  (avg.           0.0000000000)
	Current Adsorbate-Cation energy:              0.0000000000 [K]  (avg.           0.0000000000)

WARNING: INAPPROPRIATE NUMBER OF UNIT CELLS USED
WARNING: THERE ARE ATOM-PAIRS WITH NO VDW INTERACTION Mg1-Mg1 Mg1-O1 Mg1-O2 Mg1-O3 Mg1-C1 Mg1-C2 Mg1-C3 Mg1-C4 Mg1-H1 O1-Mg1 O1-O2 O1-O3 O1-C1 O1-C2 O1-C3 O1-C4 O1-H1 O2-Mg1 O2-O1 O2-O3 O2-C1 O2-C2 O2-C3 O2-C4 O2-H1 O3-Mg1 O3-O1 O3-O2 O3-C1 O3-C2 O3-C3 O3-C4 O3-H1 C1-Mg1 C1-O1 C1-O2 C1-O3 C1-C2 C1-C3 C1-C4 C1-H1 C2-Mg1 C2-O1 C2-O2 C2-O3 C2-C1 C2-C3 C2-C4 C2-H1 C3-Mg1  (maximum 50 interactions shown)


Average Properties at Current cycle: 100 out of 10000
========================================================================================

Framework surface area:       0.0000000000 [m^2/g]        0.0000000000 [m^2/cm^3]       0.0000000000 [A^2]
	Framework 0 individual surface area:       0.0000000000 [m^2/g]        0.0000000000 [m^2/cm^3]       0.0000000000 [A^2]
	Cation surface area:                       0.0000000000 [m^2/g]        0.0000000000 [m^2/cm^3]       0.0000000000 [A^2]
Compressibility:               -nan [-]
Henry coefficients
	Component 0: 0 [mol/kg/Pa] (Rosenbluth factor new: 0 [-])
Energy <U_gh>_1-<U_h>_0 from Widom


Current cycle: 100 out of 10000
========================================================================================================

Net charge: 3.94129e-15 (F: 3.94129e-15, A: 0, C: 0)
Current Box:  26.13600 -13.06800   0.00000 [A]   Average Box:  26.13600 -13.06800   0.00000 [A]
               0.00000  22.63444   0.00000 [A]                  0.00000  22.63444   0.00000 [A]
               0.00000   0.00000   6.94200 [A]                  0.00000   0.00000   6.94200 [A]
Box-lengths:   26.13600  26.13600   6.94200 [A] Average:  26.13600  26.13600   6.94200 [A]
[...]
	Block[ 2]            0.00000 [K]
	Block[ 3]            0.00000 [K]
	Block[ 4]            0.00000 [K]
	------------------------------------------------------------------------------
	Average              0.00000 [K] +/-            0.00000 [K]

Average Cation Torsion energy:
==============================
	Block[ 0]            0.00000 [K]
	Block[ 1]            0.00000 [K]
	Block[ 2]            0.00000 [K]
	Block[ 3]            0.00000 [K]
	Block[ 4]            0.00000 [K]
	------------------------------------------------------------------------------
	Average              0.00000 [K] +/-            0.00000 [K]

Average Cation Improper Torsion energy:
=======================================
	Block[ 0]            0.00000 [K]
	Block[ 1]            0.00000 [K]
	Block[ 2]            0.00000 [K]
	Block[ 3]            0.00000 [K]
	Block[ 4]            0.00000 [K]
	------------------------------------------------------------------------------
	Average              0.00000 [K] +/-            0.00000 [K]

Average Cation Bond-Bond cross term energy:
=================================================
	Block[ 0]            0.00000 [K]
	Block[ 1]            0.00000 [K]
	Block[ 2]            0.00000 [K]
	Block[ 3]            0.00000 [K]
	Block[ 4]            0.00000 [K]
	------------------------------------------------------------------------------
	Average              0.00000 [K] +/-            0.00000 [K]

Average Cation Bend-Bend cross term energy:
===========================================
	Block[ 0]            0.00000 [K]
	Block[ 1]            0.00000 [K]
	Block[ 2]            0.00000 [K]
	Block[ 3]            0.00000 [K]
	Block[ 4]            0.00000 [K]
	------------------------------------------------------------------------------
	Average              0.00000 [K] +/-            0.00000 [K]

Average Cation Bond-Bend cross term energy:
==============================================
	Block[ 0]            0.00000 [K]
	Block[ 1]            0.00000 [K]
	Block[ 2]            0.00000 [K]
	Block[ 3]            0.00000 [K]
	Block[ 4]            0.00000 [K]
	------------------------------------------------------------------------------
	Average              0.00000 [K] +/-            0.00000 [K]

Average Cation Bond-Torsion cross term energy:
==============================================
	Block[ 0]            0.00000 [K]
	Block[ 1]            0.00000 [K]
	Block[ 2]            0.00000 [K]
	Block[ 3]            0.00000 [K]
	Block[ 4]            0.00000 [K]
	------------------------------------------------------------------------------
	Average              0.00000 [K] +/-            0.00000 [K]

Average Cation Bend-Torsion cross term energy:
==============================================
	Block[ 0]            0.00000 [K]
	Block[ 1]            0.00000 [K]
	Block[ 2]            0.00000 [K]
	Block[ 3]            0.00000 [K]
	Block[ 4]            0.00000 [K]
	------------------------------------------------------------------------------
	Average              0.00000 [K] +/-            0.00000 [K]

Average Cation Intra Van der Waals energy:
==========================================
	Block[ 0]            0.00000 [K]
	Block[ 1]            0.00000 [K]
	Block[ 2]            0.00000 [K]
	Block[ 3]            0.00000 [K]
	Block[ 4]            0.00000 [K]
	------------------------------------------------------------------------------
	Average              0.00000 [K] +/-            0.00000 [K]

Average Cation Intra charge-charge Coulomb energy:
====================================
	Block[ 0]            0.00000 [K]
	Block[ 1]            0.00000 [K]
	Block[ 2]            0.00000 [K]
	Block[ 3]            0.00000 [K]
	Block[ 4]            0.00000 [K]
	------------------------------------------------------------------------------
	Average              0.00000 [K] +/-            0.00000 [K]

Average Cation Intra charge-bonddipole Coulomb energy:
====================================
	Block[ 0]            0.00000 [K]
	Block[ 1]            0.00000 [K]
	Block[ 2]            0.00000 [K]
	Block[ 3]            0.00000 [K]
	Block[ 4]            0.00000 [K]
	------------------------------------------------------------------------------
	Average              0.00000 [K] +/-            0.00000 [K]

Average Cation Intra bonddipole-bonddipole Coulomb energy:
====================================
	Block[ 0]            0.00000 [K]
	Block[ 1]            0.00000 [K]
	Block[ 2]            0.00000 [K]
	Block[ 3]            0.00000 [K]
	Block[ 4]            0.00000 [K]
	------------------------------------------------------------------------------
	Average              0.00000 [K] +/-            0.00000 [K]

Average Host-Host energy:
=========================
	Block[ 0] 0.00000            Van der Waals: 0.00000            Coulomb: 0.00000            [K]
	Block[ 1] 0.00000            Van der Waals: 0.00000            Coulomb: 0.00000            [K]
	Block[ 2] 0.00000            Van der Waals: 0.00000            Coulomb: 0.00000            [K]
	Block[ 3] 0.00000            Van der Waals: 0.00000            Coulomb: 0.00000            [K]
	Block[ 4] 0.00000            Van der Waals: 0.00000            Coulomb: 0.00000            [K]
	------------------------------------------------------------------------------
	Average   0.00000            Van der Waals: 0.000000           Coulomb: 0.00000            [K]
	      +/- 0.00000                       +/- 0.000000                +/- 0.00000            [K]

Average Adsorbate-Adsorbate energy:
===================================
	Block[ 0] 0.00000            Van der Waals: 0.00000            Coulomb: 0.00000            [K]
	Block[ 1] 0.00000            Van der Waals: 0.00000            Coulomb: 0.00000            [K]
	Block[ 2] 0.00000            Van der Waals: 0.00000            Coulomb: 0.00000            [K]
	Block[ 3] 0.00000            Van der Waals: 0.00000            Coulomb: 0.00000            [K]
	Block[ 4] 0.00000            Van der Waals: 0.00000            Coulomb: 0.00000            [K]
	------------------------------------------------------------------------------
	Average   0.00000            Van der Waals: 0.000000           Coulomb: 0.00000            [K]
	      +/- 0.00000                       +/- 0.000000                +/- 0.00000            [K]

Average Cation-Cation energy:
=============================
	Block[ 0] 0.00000            Van der Waals: 0.00000            Coulomb: 0.00000            [K]
	Block[ 1] 0.00000            Van der Waals: 0.00000            Coulomb: 0.00000            [K]
	Block[ 2] 0.00000            Van der Waals: 0.00000            Coulomb: 0.00000            [K]
	Block[ 3] 0.00000            Van der Waals: 0.00000            Coulomb: 0.00000            [K]
	Block[ 4] 0.00000            Van der Waals: 0.00000            Coulomb: 0.00000            [K]
	------------------------------------------------------------------------------
	Average   0.00000            Van der Waals: 0.000000           Coulomb: 0.00000            [K]
	      +/- 0.00000                       +/- 0.000000                +/- 0.00000            [K]

Average Host-Adsorbate energy:
==============================
	Block[ 0] 0.00000            Van der Waals: 0.00000            Coulomb: 0.00000            [K]
	Block[ 1] 0.00000            Van der Waals: 0.00000            Coulomb: 0.00000            [K]
	Block[ 2] 0.00000            Van der Waals: 0.00000            Coulomb: 0.00000            [K]
	Block[ 3] 0.00000            Van der Waals: 0.00000            Coulomb: 0.00000            [K]
	Block[ 4] 0.00000            Van der Waals: 0.00000            Coulomb: 0.00000            [K]
	------------------------------------------------------------------------------
	Average   0.00000            Van der Waals: 0.000000           Coulomb: 0.00000            [K]
	      +/- 0.00000                       +/- 0.000000                +/- 0.00000            [K]

Average Host-Cation energy:
===========================
	Block[ 0] 0.00000            Van der Waals: 0.00000            Coulomb: 0.00000            [K]
	Block[ 1] 0.00000            Van der Waals: 0.00000            Coulomb: 0.00000            [K]
	Block[ 2] 0.00000            Van der Waals: 0.00000            Coulomb: 0.00000            [K]
	Block[ 3] 0.00000            Van der Waals: 0.00000            Coulomb: 0.00000            [K]
	Block[ 4] 0.00000            Van der Waals: 0.00000            Coulomb: 0.00000            [K]
	------------------------------------------------------------------------------
	Average   0.00000            Van der Waals: 0.000000           Coulomb: 0.00000            [K]
	      +/- 0.00000                       +/- 0.000000                +/- 0.00000            [K]

Average Adsorbate-Cation energy:
================================
	Block[ 0] 0.00000            Van der Waals: 0.00000            Coulomb: 0.00000            [K]
	Block[ 1] 0.00000            Van der Waals: 0.00000            Coulomb: 0.00000            [K]
	Block[ 2] 0.00000            Van der Waals: 0.00000            Coulomb: 0.00000            [K]
	Block[ 3] 0.00000            Van der Waals: 0.00000            Coulomb: 0.00000            [K]
	Block[ 4] 0.00000            Van der Waals: 0.00000            Coulomb: 0.00000            [K]
	------------------------------------------------------------------------------
	Average   0.00000            Van der Waals: 0.000000           Coulomb: 0.00000            [K]
	      +/- 0.00000                       +/- 0.000000                +/- 0.00000            [K]

Host polarization energy:
=======================
	Block[ 0]            0.00000 [K]
	Block[ 1]            0.00000 [K]
	Block[ 2]            0.00000 [K]
	Block[ 3]            0.00000 [K]
	Block[ 4]            0.00000 [K]
	------------------------------------------------------------------------------
	Average              0.00000 [K] +/-            0.00000 [K]

Adsorbate polarization energy:
=======================
	Block[ 0]            0.00000 [K]
	Block[ 1]            0.00000 [K]
	Block[ 2]            0.00000 [K]
	Block[ 3]            0.00000 [K]
	Block[ 4]            0.00000 [K]
	------------------------------------------------------------------------------
	Average              0.00000 [K] +/-            0.00000 [K]

Cation polarization energy:
=======================
	Block[ 0]            0.00000 [K]
	Block[ 1]            0.00000 [K]
	Block[ 2]            0.00000 [K]
	Block[ 3]            0.00000 [K]
	Block[ 4]            0.00000 [K]
	------------------------------------------------------------------------------
	Average              0.00000 [K] +/-            0.00000 [K]

Host back-polarization energy:
=======================
	Block[ 0]            0.00000 [K]
	Block[ 1]            0.00000 [K]
	Block[ 2]            0.00000 [K]
	Block[ 3]            0.00000 [K]
	Block[ 4]            0.00000 [K]
	------------------------------------------------------------------------------
	Average              0.00000 [K] +/-            0.00000 [K]

Adsorbate back-polarization energy:
=======================
	Block[ 0]            0.00000 [K]
	Block[ 1]            0.00000 [K]
	Block[ 2]            0.00000 [K]
	Block[ 3]            0.00000 [K]
	Block[ 4]            0.00000 [K]
	------------------------------------------------------------------------------
	Average              0.00000 [K] +/-            0.00000 [K]

Cation back-polarization energy:
=======================
	Block[ 0]            0.00000 [K]
	Block[ 1]            0.00000 [K]
	Block[ 2]            0.00000 [K]
	Block[ 3]            0.00000 [K]
	Block[ 4]            0.00000 [K]
	------------------------------------------------------------------------------
	Average              0.00000 [K] +/-            0.00000 [K]

Tail-correction energy:
=======================
	Block[ 0]            0.00000 [K]
	Block[ 1]            0.00000 [K]
	Block[ 2]            0.00000 [K]
	Block[ 3]            0.00000 [K]
	Block[ 4]            0.00000 [K]
	------------------------------------------------------------------------------
	Average              0.00000 [K] +/-            0.00000 [K]

Distance-constraints energy:
=======================
	Block[ 0]            0.00000 [K]
	Block[ 1]            0.00000 [K]
	Block[ 2]            0.00000 [K]
	Block[ 3]            0.00000 [K]
	Block[ 4]            0.00000 [K]
	------------------------------------------------------------------------------
	Average              0.00000 [K] +/-            0.00000 [K]

Angle-constraints energy:
=======================
	Block[ 0]            0.00000 [K]
	Block[ 1]            0.00000 [K]
	Block[ 2]            0.00000 [K]
	Block[ 3]            0.00000 [K]
	Block[ 4]            0.00000 [K]
	------------------------------------------------------------------------------
	Average              0.00000 [K] +/-            0.00000 [K]

Dihedral-constraints energy:
=======================
	Block[ 0]            0.00000 [K]
	Block[ 1]            0.00000 [K]
	Block[ 2]            0.00000 [K]
	Block[ 3]            0.00000 [K]
	Block[ 4]            0.00000 [K]
	------------------------------------------------------------------------------
	Average              0.00000 [K] +/-            0.00000 [K]

Inversion-bend constraints energy:
=======================
	Block[ 0]            0.00000 [K]
	Block[ 1]            0.00000 [K]
	Block[ 2]            0.00000 [K]
	Block[ 3]            0.00000 [K]
	Block[ 4]            0.00000 [K]
	------------------------------------------------------------------------------
	Average              0.00000 [K] +/-            0.00000 [K]

Out-of-plane-distance constraints energy:
=======================
	Block[ 0]            0.00000 [K]
	Block[ 1]            0.00000 [K]
	Block[ 2]            0.00000 [K]
	Block[ 3]            0.00000 [K]
	Block[ 4]            0.00000 [K]
	------------------------------------------------------------------------------
	Average              0.00000 [K] +/-            0.00000 [K]

Exclusion-constraints energy:
=======================
	Block[ 0]            0.00000 [K]
	Block[ 1]            0.00000 [K]
	Block[ 2]            0.00000 [K]
	Block[ 3]            0.00000 [K]
	Block[ 4]            0.00000 [K]
	------------------------------------------------------------------------------
	Average              0.00000 [K] +/-            0.00000 [K]

Total energy:
=============
	Block[ 0]            0.00000 [K]
	Block[ 1]            0.00000 [K]
	Block[ 2]            0.00000 [K]
	Block[ 3]            0.00000 [K]
	Block[ 4]            0.00000 [K]
	------------------------------------------------------------------------------
	Average              0.00000 [K] +/-            0.00000 [K]

Number of molecules:
====================

Component 0 [N2]
-------------------------------------------------------------
	Block[ 0] 0.00000            [-]
	Block[ 1] 0.00000            [-]
	Block[ 2] 0.00000            [-]
	Block[ 3] 0.00000            [-]
	Block[ 4] 0.00000            [-]
	------------------------------------------------------------------------------
	Average                                      0.0000000000 +/-       0.0000000000 [-]
	Average loading absolute [molecules/unit cell]        0.0000000000 +/-       0.0000000000 [-]
	Average loading absolute [mol/kg framework]          0.0000000000 +/-       0.0000000000 [-]
	Average loading absolute [milligram/gram framework]          0.0000000000 +/-       0.0000000000 [-]
	Average loading absolute [cm^3 (STP)/gr framework]          0.0000000000 +/-       0.0000000000 [-]
	Average loading absolute [cm^3 (STP)/cm^3 framework]          0.0000000000 +/-       0.0000000000 [-]

	Block[ 0] 0.00000            [-]
	Block[ 1] 0.00000            [-]
	Block[ 2] 0.00000            [-]
	Block[ 3] 0.00000            [-]
	Block[ 4] 0.00000            [-]
	------------------------------------------------------------------------------
	Average                                      0.0000000000 +/-       0.0000000000 [-]
	Average loading excess [molecules/unit cell]        0.0000000000 +/-       0.0000000000 [-]
	Average loading excess [mol/kg framework]          0.0000000000 +/-       0.0000000000 [-]
	Average loading excess [milligram/gram framework]          0.0000000000 +/-       0.0000000000 [-]
	Average loading excess [cm^3 (STP)/gr framework]          0.0000000000 +/-       0.0000000000 [-]
	Average loading excess [cm^3 (STP)/cm^3 framework]          0.0000000000 +/-       0.0000000000 [-]


Average Widom Rosenbluth factor:
================================
	Block[ 0] 0 [-]
	Block[ 1] 0 [-]
	Block[ 2] 0 [-]
	Block[ 3] 0 [-]
	Block[ 4] 0 [-]
	------------------------------------------------------------------------------
	[N2] Average Widom Rosenbluth-weight:   0 +/- 0.000000 [-]

Average Widom chemical potential:
=================================
	Block[ 0] 0 [-]
	Block[ 1] 0 [-]
	Block[ 2] 0 [-]
	Block[ 3] 0 [-]
	Block[ 4] 0 [-]
	------------------------------------------------------------------------------
	[N2] Average chemical potential:   0 +/- 0.000000 [K]

Average Widom Ideal-gas contribution:
=====================================
	Block[ 0] 0 [-]
	Block[ 1] 0 [-]
	Block[ 2] 0 [-]
	Block[ 3] 0 [-]
	Block[ 4] 0 [-]
	------------------------------------------------------------------------------
	[N2] Average Widom Ideal-gas chemical potential:   0 +/- 0.000000 [-]

Average Widom excess contribution:
==================================
	Block[ 0] 0 [-]
	Block[ 1] 0 [-]
	Block[ 2] 0 [-]
	Block[ 3] 0 [-]
	Block[ 4] 0 [-]
	------------------------------------------------------------------------------
	[N2] Average Widom excess chemical potential:   0 +/- 0.000000 [-]

Average Gibbs Widom Rosenbluth factor:
======================================
	Block[ 0] 0 [-]
	Block[ 1] 0 [-]
	Block[ 2] 0 [-]
	Block[ 3] 0 [-]
	Block[ 4] 0 [-]
	------------------------------------------------------------------------------
	[N2] Average Gibbs Widom Rosenbluth-weight:   0 +/- 0.000000 [-]

Average Gibbs Widom chemical potential:
=======================================
	Block[ 0] 0 [-]
	Block[ 1] 0 [-]
	Block[ 2] 0 [-]
	Block[ 3] 0 [-]
	Block[ 4] 0 [-]
	------------------------------------------------------------------------------
	[N2] Average Gibbs chemical potential:   0 +/- 0.000000 [K]

Average Gibbs Widom Ideal-gas contribution:
===========================================
	Block[ 0] 0 [-]
	Block[ 1] 0 [-]
	Block[ 2] 0 [-]
	Block[ 3] 0 [-]
	Block[ 4] 0 [-]
	------------------------------------------------------------------------------
	[N2] Average Gibbs Ideal-gas chemical potential:   0 +/- 0.000000 [-]

Average Gibbs Widom excess contribution:
===========================================
	Block[ 0] 0 [-]
	Block[ 1] 0 [-]
	Block[ 2] 0 [-]
	Block[ 3] 0 [-]
	Block[ 4] 0 [-]
	------------------------------------------------------------------------------
	[N2] Average Gibbs excess chemical potential:   0 +/- 0.000000 [-]

Average Henry coefficient:
==========================
	Block[ 0] 0 [mol/kg/Pa]
	Block[ 1] 0 [mol/kg/Pa]
	Block[ 2] 0 [mol/kg/Pa]
	Block[ 3] 0 [mol/kg/Pa]
	Block[ 4] 0 [mol/kg/Pa]
	------------------------------------------------------------------------------
	[N2] Average Henry coefficient:  0 +/- 0 [mol/kg/Pa]

Average adsorption energy <U_gh>_1-<U_h>_0 obtained from Widom-insertion:
(Note: the total heat of adsorption is dH=<U_gh>_1-<U_h>_0 - <U_g> - RT)
=========================================================================

Simulation finished,  2 warnings
WARNING: INAPPROPRIATE NUMBER OF UNIT CELLS USED
WARNING: THERE ARE ATOM-PAIRS WITH NO VDW INTERACTION Mg1-Mg1 Mg1-O1 Mg1-O2 Mg1-O3 Mg1-C1 Mg1-C2 Mg1-C3 Mg1-C4 Mg1-H1 O1-Mg1 O1-O2 O1-O3 O1-C1 O1-C2 O1-C3 O1-C4 O1-H1 O2-Mg1 O2-O1 O2-O3 O2-C1 O2-C2 O2-C3 O2-C4 O2-H1 O3-Mg1 O3-O1 O3-O2 O3-C1 O3-C2 O3-C3 O3-C4 O3-H1 C1-Mg1 C1-O1 C1-O2 C1-O3 C1-C2 C1-C3 C1-C4 C1-H1 C2-Mg1 C2-O1 C2-O2 C2-O3 C2-C1 C2-C3 C2-C4 C2-H1 C3-Mg1  (maximum 50 interactions shown)


Fri Nov 26 20:41:05 2021
Simulation finished on Friday, November 26.
The end time was 08:41 PM.

