Compiler and run-time data
===========================================================================
RASPA 2.0.37
Compiled as a 64-bits application
Compiler: gcc 7.5.0
Compile Date = Nov 15 2021, Compile Time = 11:09:27

Thu Nov 25 19:47:33 2021
Simulation started on Thursday, November 25.
The start time was 07:47 PM.

Hostname:    The start time was 07:47 PM.
OS type:     The start time was 07:47 PM.
OS release:  The start time was 07:47 PM.
OS version:  The start time was 07:47 PM.

Simulation
===========================================================================
Dimensions: 3
Random number seed: 1637837252
RASPA directory set to: /home/inukai/RASPA2
String appended to output-files: 
Number of cycles: 10000
Number of initializing cycles: 0
Number of equilibration cycles: 0
Print every: 100
Triclinic boundary condition applied
Timestep: 0.000500
	Degrees of freedom:                        0
	Translational Degrees of freedom:          0
	Rotational Degrees of freedom:             0
	Degrees of freedom Framework:              0


Mutual consistent basic set of units:
======================================
Unit of temperature: Kelvin
Unit of length:      1e-10 [m]
Unit of time:        1e-12 [s]
Unit of mass:        1.66054e-27 [kg]
Unit of charge:      1.60218e-19 [C/particle]

Derived units and their conversion factors:
===========================================
Unit of energy:              1.66054e-23 [J]
Unit of force:               1.66054e-13 [N]
Unit of pressure:            1.66054e+07 [Pa]
Unit of velocity:            100 [m/s]
Unit of acceleration:        1e-08 [m^2/s]
Unit of diffusion:           1e-08 [m^2/s]
Unit of dipole moment:       1.60218e-29 [C.m]
Unit of electric potential:  0.000103643 [V]
Unit of electric field:      1.03643e+06 [V]
Unit of polarizability:      1.54587e-35 [-]
Unit of Coulomb potential:   167101.0800066561  [K]
Unit of dielectric constant: 0.0000154587       [s^2 C^2/(kg m^3)]
Unit of wave vectors:        5.3088374589       [cm^1]
Boltzmann constant:          0.8314464919       [-]

Internal conversion factors:
===========================================
Energy to Kelvin:                                    1.2027242847
FH correction factor                                 2.0211930949
Heat capacity conversion factor:                    10.0000088723
From Debye to internal units:                        4.8032067991
Isothermal compressibility conversion factor:        0.0000000602

Energy conversion factors:
===========================================
From mdyne/A to kcal/mol/A^2:           143.933
From mdyne/A to kj/mol/A^2:             602.214
From mdyne/A to K/A^2:                  72429.7
From mdyne A/rad^2 to kcal/mol/deg^2:   0.0438444


Properties computed
===========================================================================
Movies: no
Radial Distribution Function: no
Number of molecules GCMC histogram: no
Histogram of the molecule positions: no
Free energy profiles: no
Pore Size Distribution Function: no
End-to-end distance: no
Histogram of the energy of the system: no
Compute thermodynamic factors: no
Framework spacing histograms: no
Residence times histograms: no
Distance histograms: no
Bend Angle histograms: no
Dihedral angle histograms: no
Angle between planes histograms: no
Molecule properties: no
Infra-red spectra: no
Mean-squared displacement using modified order-N algorithm: no
Velocity-autocorrelation function modified order-N algorithm: no
Rotational velocity-autocorrelation function modified order-N algorithm: no
Molecular orientation-autocorrelation function modified order-N algorithm: no
Bond orientation-autocorrelation function modified order-N algorithm: no
Mean-squared displacement (conventional algorithm): no
Velocity-autocorrelation function (conventional algorithm): no
3D density grid for adsorbates: no
Compute cation an/or adsorption sites: no
dcTST snapshots: no
Compute pressure and stress: no


VTK
===========================================================================
VTK fractional-range position framework atoms: [-0.001000,1.001000] [-0.001000,1.001000] [-0.001000,1.001000]
VTK fractional-range position framework bonds: [-0.151000,1.151000] [-0.151000,1.151000] [-0.151000,1.151000]
VTK fractional-range com-position adsorbate molecules: [-0.101000,1.101000] [-0.101000,1.101000] [-0.101000,1.101000]
VTK fractional-range com-position cation molecules: [-0.101000,1.101000] [-0.101000,1.101000] [-0.101000,1.101000]
	3D free energy grid made for the full simulation-cell


Thermo/Baro-stat NHC parameters
===========================================================================
External temperature: 298 [K]
Beta: 0 [energy unit]
External Pressure: 0 [Pa]


Thermostat chain-length: 3
Timescale parameter for thermostat: 0.150000 [ps]
Barostat chain-length:   3
Timescale parameter for barostat:   0.150000 [ps]

Number of Yoshida-Suzuki decomposition steps: 5
Number of respa steps: 5


Method and settings for electrostatics
===============================================================================
Dielectric constant of the medium : 1.000000
Charge from charge-equilibration: no
Ewald summation is used (exact solution of a periodic system)
Relative precision                : 1e-06
Alpha convergence parameter       : 0.265058
kvec (x,y,z)                      : 14 14 14


CFC-RXMC parameters
===========================================================================
Number of reactions: 0


Rattle parameters
===========================================================================
Distance constraint type: r^2-r^2_0
Bend angle constraint type: theta-theta_0
Dihedral angle constraint type: phi-phi_0
Inversion-bend angle constraint type: chi-chi_0
Out-of-plane distance constraint type: r-r_0


Spectra parameters
===========================================================================
Compute normal modes: no


Minimization parameters
===========================================================================
Generalized coordinates are: Cartesian center-of-mass, elements of the orientational matrix p1,p2,p3 and strain
Potential derivatives are evaluated: analytically
Translation of the system is removed from the generalized Hessian: no
Rotation of the system is removed from the generalized Hessian: no
Maximum step-length: 0.3
Convergence factor: 1
Maximum number of minimization steps: 10000
Use gradients in the line-minimizations: yes
RMS gradient tolerance: 1e-06
Maximum gradient tolerance: 1e-06

Distance constraints: 0
Angle constraints: 0
Dihedral constraints: 0

Improper dihedral constraints: 0

Inversion-bend constraints: 0

Out-of-plane constraints: 0

Harmonic distance constraints: 0
Harmonic angle constraints: 0
Harmonic dihedral constraints: 0

Dihedral mid-point measurements: 0

All framework atoms are fixed

Fixed adsorbate atoms:  
Fixed adsorbate groups (center-of-mass):  
Fixed adsorbate groups (orientation):  

Fixed cation atoms:  
Fixed cation groups (center-of-mass):  
Fixed cation groups (orientation):  


dcTST parameters
===========================================================================
Free energy profiles computed: no
Free energy profiles written every 5000 cycles
Free energy mapping: mapped to a,b,c-coordinates
BarrierPosition:       0.0000000000       0.0000000000       0.0000000000
BarrierNormal:         0.0000000000       0.0000000000       0.0000000000
Start with a molecule on top of the barrier: no
Maximum distance to barrier (e.g. distance to minumum free energy):       0.0000000000 [A]
Maximum trajectory time:      10.0000000000 [ps]
Each configuration is used with 5 different initial velocities


Cbmc parameters
===========================================================================
Biasing method: using only the VDW part
Number of trial positions:                                       10
Number of trial positions (reinsertion):                         10
Number of trial positions (partial reinsertion):                 10
Number of trial positions (identity-change):                     10
Number of trial positions (Gibbs particle transfer):             10
Number of trial positions (insertion/deletion):                  10
Number of trial positions (Widom insertion):                     10
Number of trial positions coupled Torsion-selection:             100
Number of trial positions first bead:                            10
Number of trial positions first bead (reinsertion):              10
Number of trial positions first bead (partial reinsertion):      10
Number of trial positions first bead (identity-change):          10
Number of trial positions first bead (Gibbs particle transfer):  10
Number of trial positions first bead (insertion/deletion):       10
Number of trial positions first bead (Widom insertion):          10
Number of trial moves per open bead:                             150
Target acceptance ratio small-mc scheme:                         0.400000
Energy overlap criteria:                                         1e+07
Minimal Rosenbluth factor:                                       1e-150


Pseudo atoms: 27
===========================================================================
Pseudo Atom[   0] Name UNIT     Oxidation:          Element: H    pdb-name: H    Scat. Types:   1   1 Mass=1.000000000  B-factor:0.000   
                 Charge=1.000000000          Polarization=0.000000000  [A^3] (considered a charged atom and no polarization)  Interactions: yes
                 Anisotropic factor:    0.000 [-] (Absolute), Radius:    1.000 [A], Framework-atom:  no
Pseudo Atom[   1] Name He       Oxidation: +0       Element: He   pdb-name: He   Scat. Types:   3   2 Mass=4.002602000  B-factor:1.000   
                 Charge=0.000000000          Polarization=0.000000000  [A^3] (considered a chargeless atom and no polarization)  Interactions: yes
                 Anisotropic factor:    0.000 [-] (Relative), Radius:    1.000 [A], Framework-atom:  no
Pseudo Atom[   2] Name Cr1      Oxidation: +0       Element: Cr   pdb-name: Cr   Scat. Types:  25  24 Mass=51.996100000 B-factor:1.000   
                 Charge=1.859000000          Polarization=0.000000000  [A^3] (considered a charged atom and no polarization)  Interactions: yes
                 Anisotropic factor:    0.000 [-] (Relative), Radius:    1.448 [A], Framework-atom: yes (charge from pseudo-atoms file)
Pseudo Atom[   3] Name Cr2      Oxidation: +0       Element: Cr   pdb-name: Cr   Scat. Types:  25  24 Mass=51.996100000 B-factor:1.000   
                 Charge=1.620000000          Polarization=0.000000000  [A^3] (considered a charged atom and no polarization)  Interactions: yes
                 Anisotropic factor:    0.000 [-] (Relative), Radius:    1.448 [A], Framework-atom: yes (charge from pseudo-atoms file)
Pseudo Atom[   4] Name O1       Oxidation: +0       Element: O    pdb-name: O    Scat. Types:   9   8 Mass=15.999400000 B-factor:1.000   
                 Charge=-1.280000000         Polarization=0.000000000  [A^3] (considered a charged atom and no polarization)  Interactions: yes
                 Anisotropic factor:    0.000 [-] (Relative), Radius:    0.680 [A], Framework-atom: yes (charge from pseudo-atoms file)
Pseudo Atom[   5] Name O2       Oxidation: +0       Element: O    pdb-name: O    Scat. Types:   9   8 Mass=15.999400000 B-factor:1.000   
                 Charge=-0.731000000         Polarization=0.000000000  [A^3] (considered a charged atom and no polarization)  Interactions: yes
                 Anisotropic factor:    0.000 [-] (Relative), Radius:    0.680 [A], Framework-atom: yes (charge from pseudo-atoms file)
Pseudo Atom[   6] Name O3       Oxidation: +0       Element: O    pdb-name: O    Scat. Types:   9   8 Mass=15.999400000 B-factor:1.000   
                 Charge=-0.587000000         Polarization=0.000000000  [A^3] (considered a charged atom and no polarization)  Interactions: yes
                 Anisotropic factor:    0.000 [-] (Relative), Radius:    0.680 [A], Framework-atom: yes (charge from pseudo-atoms file)
Pseudo Atom[   7] Name C1       Oxidation: +0       Element: C    pdb-name: C    Scat. Types:   7   6 Mass=12.010700000 B-factor:1.000   
                 Charge=0.848000000          Polarization=0.000000000  [A^3] (considered a charged atom and no polarization)  Interactions: yes
                 Anisotropic factor:    0.000 [-] (Relative), Radius:    0.720 [A], Framework-atom: yes (charge from pseudo-atoms file)
Pseudo Atom[   8] Name C2       Oxidation: +0       Element: C    pdb-name: C    Scat. Types:   7   6 Mass=12.010700000 B-factor:1.000   
                 Charge=-0.274000000         Polarization=0.000000000  [A^3] (considered a charged atom and no polarization)  Interactions: yes
                 Anisotropic factor:    0.000 [-] (Relative), Radius:    0.720 [A], Framework-atom: yes (charge from pseudo-atoms file)
Pseudo Atom[   9] Name C3       Oxidation: +0       Element: C    pdb-name: C    Scat. Types:   7   6 Mass=12.010700000 B-factor:1.000   
                 Charge=0.110000000          Polarization=0.000000000  [A^3] (considered a charged atom and no polarization)  Interactions: yes
                 Anisotropic factor:    0.000 [-] (Relative), Radius:    0.720 [A], Framework-atom: yes (charge from pseudo-atoms file)
Pseudo Atom[  10] Name H1       Oxidation: +0       Element: H    pdb-name: H    Scat. Types:   1   1 Mass=1.007940000  B-factor:1.000   
                 Charge=0.100000000          Polarization=0.000000000  [A^3] (considered a charged atom and no polarization)  Interactions: yes
                 Anisotropic factor:    0.000 [-] (Relative), Radius:    0.320 [A], Framework-atom: yes (charge from pseudo-atoms file)
Pseudo Atom[  11] Name F2       Oxidation: +0       Element: F    pdb-name: F    Scat. Types:  10   9 Mass=18.998400000 B-factor:1.000   
                 Charge=-0.566000000         Polarization=0.000000000  [A^3] (considered a charged atom and no polarization)  Interactions: yes
                 Anisotropic factor:    0.000 [-] (Relative), Radius:    0.320 [A], Framework-atom:  no
Pseudo Atom[  12] Name CH4_sp3  Oxidation: +0       Element: C    pdb-name: C    Scat. Types:   7   6 Mass=16.042460000 B-factor:1.000   
                 Charge=0.000000000          Polarization=0.000000000  [A^3] (considered a chargeless atom and no polarization)  Interactions: yes
                 Anisotropic factor:    0.000 [-] (Relative), Radius:    1.000 [A], Framework-atom:  no
Pseudo Atom[  13] Name CH3_sp3  Oxidation: +0       Element: C    pdb-name: C    Scat. Types:   7   6 Mass=15.034520000 B-factor:1.000   
                 Charge=0.000000000          Polarization=0.000000000  [A^3] (considered a chargeless atom and no polarization)  Interactions: yes
                 Anisotropic factor:    0.000 [-] (Relative), Radius:    1.000 [A], Framework-atom:  no
Pseudo Atom[  14] Name CH2_sp3  Oxidation: +0       Element: C    pdb-name: C    Scat. Types:   7   6 Mass=14.026580000 B-factor:1.000   
                 Charge=0.000000000          Polarization=0.000000000  [A^3] (considered a chargeless atom and no polarization)  Interactions: yes
                 Anisotropic factor:    0.000 [-] (Relative), Radius:    1.000 [A], Framework-atom:  no
Pseudo Atom[  15] Name CH_sp3   Oxidation: +0       Element: C    pdb-name: C    Scat. Types:   7   6 Mass=13.018640000 B-factor:1.000   
                 Charge=0.000000000          Polarization=0.000000000  [A^3] (considered a chargeless atom and no polarization)  Interactions: yes
                 Anisotropic factor:    0.000 [-] (Relative), Radius:    1.000 [A], Framework-atom:  no
Pseudo Atom[  16] Name C_sp3    Oxidation: +0       Element: C    pdb-name: C    Scat. Types:   7   6 Mass=12.000000000 B-factor:1.000   
                 Charge=0.000000000          Polarization=0.000000000  [A^3] (considered a chargeless atom and no polarization)  Interactions: yes
                 Anisotropic factor:    0.000 [-] (Relative), Radius:    1.000 [A], Framework-atom:  no
Pseudo Atom[  17] Name C_co2    Oxidation: +0       Element: C    pdb-name: C    Scat. Types:   7   6 Mass=12.010700000 B-factor:1.000   
                 Charge=0.700000000          Polarization=1.508000000  [A^3] (considered a charged atom and polarizable)  Interactions: yes
                 Anisotropic factor:    0.000 [-] (Relative), Radius:    0.720 [A], Framework-atom:  no
Pseudo Atom[  18] Name O_co2    Oxidation: +0       Element: O    pdb-name: O    Scat. Types:   9   8 Mass=15.999400000 B-factor:1.000   
                 Charge=-0.350000000         Polarization=0.947500000  [A^3] (considered a charged atom and polarizable)  Interactions: yes
                 Anisotropic factor:    0.000 [-] (Relative), Radius:    0.680 [A], Framework-atom:  no
Pseudo Atom[  19] Name N_n2     Oxidation: +0       Element: N    pdb-name: N    Scat. Types:   8   7 Mass=14.006740000 B-factor:1.000   
                 Charge=-0.482000000         Polarization=0.000000000  [A^3] (considered a charged atom and no polarization)  Interactions: yes
                 Anisotropic factor:    0.000 [-] (Relative), Radius:    0.700 [A], Framework-atom:  no
Pseudo Atom[  20] Name N_com    Oxidation: +0       Element: N    pdb-name: N    Scat. Types:   8   7 Mass=0.000000000  B-factor:1.000   
                 Charge=0.964000000          Polarization=0.000000000  [A^3] (considered a charged atom and no polarization)  Interactions:  no
                 Anisotropic factor:    0.000 [-] (Relative), Radius:    0.700 [A], Framework-atom:  no
Pseudo Atom[  21] Name H_h2     Oxidation: +0       Element: H    pdb-name: H    Scat. Types:   1   1 Mass=1.007940000  B-factor:1.000   
                 Charge=0.468000000          Polarization=0.000000000  [A^3] (considered a charged atom and no polarization)  Interactions: yes
                 Anisotropic factor:    0.000 [-] (Relative), Radius:    0.700 [A], Framework-atom:  no
Pseudo Atom[  22] Name H_com    Oxidation: +0       Element: H    pdb-name: H    Scat. Types:   1   1 Mass=0.000000000  B-factor:1.000   
                 Charge=-0.936000000         Polarization=0.000000000  [A^3] (considered a charged atom and no polarization)  Interactions: yes
                 Anisotropic factor:    0.000 [-] (Relative), Radius:    0.700 [A], Framework-atom:  no
Pseudo Atom[  23] Name Ar       Oxidation: +0       Element: Ar   pdb-name: Ar   Scat. Types:  19  18 Mass=39.948000000 B-factor:1.000   
                 Charge=0.000000000          Polarization=0.000000000  [A^3] (considered a chargeless atom and no polarization)  Interactions: yes
                 Anisotropic factor:    0.000 [-] (Relative), Radius:    0.700 [A], Framework-atom:  no
Pseudo Atom[  24] Name Kr       Oxidation: +0       Element: Kr   pdb-name: Kr   Scat. Types:  37  36 Mass=83.798000000 B-factor:1.000   
                 Charge=0.000000000          Polarization=0.000000000  [A^3] (considered a chargeless atom and no polarization)  Interactions: yes
                 Anisotropic factor:    0.000 [-] (Relative), Radius:    1.000 [A], Framework-atom:  no
Pseudo Atom[  25] Name Xe       Oxidation: +0       Element: Xe   pdb-name: Xe   Scat. Types:  55  54 Mass=131.293000000 B-factor:1.000   
                 Charge=0.000000000          Polarization=0.000000000  [A^3] (considered a chargeless atom and no polarization)  Interactions: yes
                 Anisotropic factor:    0.000 [-] (Relative), Radius:    1.000 [A], Framework-atom:  no
Pseudo Atom[  26] Name F1       Oxidation:          Element: F    pdb-name: F    Scat. Types:  10   9 Mass=18.998403220 B-factor:0.000   
                 Charge=0.000000000  (-na-)  Polarization=0.557000000  [A^3] (considered a charged atom and no polarization)  Interactions: yes
                 Anisotropic factor:    0.000 [-] (Absolute), Radius:    0.600 [A], Framework-atom: yes (charge definition not found)


Forcefield: Dubbeldam2012MIL-100
===========================================================================
Minimal distance: 1
CutOff VDW : 12.800000 (163.840000)
CutOff VDW switching on: 11.520000 (132.710400)
CutOff charge-charge : 12.000000 (144.000000)
CutOff charge-charge switching on: 7.800000 (60.840000)
CutOff charge-bonddipole : 12.000000 (144.000000)
CutOff charge-bondipole switching on: 8.400000 (70.560000)
CutOff bonddipole-bonddipole : 12.000000 (144.000000)
CutOff bonddipole-bondipole switching on: 9.000000 (81.000000)
Polarization is neglected
All potentials are shifted to zero at the Cutoff

General mixing rule: Lorentz-Berthelot mixing rules are used FIRST for cross terms
0 cross terms are overwritten using the individual mixing rules from the file 'force_field_mixing_rules.def'
and then 0 terms are overwritten using the specific interactions from the file 'force_field.def'

The force field and all the interactions:
     He -      He [LENNARD_JONES] p_0/k_B:  10.90000 [K], p_1: 2.64000 [A], shift/k_B:  -0.00335596 [K], tailcorrection: no
     He -     Cr1 [LENNARD_JONES] p_0/k_B:   9.07046 [K], p_1: 2.66650 [A], shift/k_B:  -0.00296513 [K], tailcorrection: no
     He -     Cr2 [LENNARD_JONES] p_0/k_B:   9.07046 [K], p_1: 2.66650 [A], shift/k_B:  -0.00296513 [K], tailcorrection: no
     He -      O1 [LENNARD_JONES] p_0/k_B:  22.91118 [K], p_1: 2.83650 [A], shift/k_B:  -0.01085158 [K], tailcorrection: no
     He -      O2 [LENNARD_JONES] p_0/k_B:  22.91118 [K], p_1: 2.83650 [A], shift/k_B:  -0.01085158 [K], tailcorrection: no
     He -      O3 [LENNARD_JONES] p_0/k_B:  22.91118 [K], p_1: 2.83650 [A], shift/k_B:  -0.01085158 [K], tailcorrection: no
     He -      C1 [LENNARD_JONES] p_0/k_B:  22.83923 [K], p_1: 3.05650 [A], shift/k_B:  -0.01693353 [K], tailcorrection: no
     He -      C2 [LENNARD_JONES] p_0/k_B:  22.83923 [K], p_1: 3.05650 [A], shift/k_B:  -0.01693353 [K], tailcorrection: no
     He -      C3 [LENNARD_JONES] p_0/k_B:  22.83923 [K], p_1: 3.05650 [A], shift/k_B:  -0.01693353 [K], tailcorrection: no
     He -      H1 [LENNARD_JONES] p_0/k_B:   9.13094 [K], p_1: 2.74300 [A], shift/k_B:  -0.00353695 [K], tailcorrection: no
     He -      F2 [LENNARD_JONES] p_0/k_B:  19.94153 [K], p_1: 2.86650 [A], shift/k_B:  -0.01006041 [K], tailcorrection: no
     He - CH4_sp3 [LENNARD_JONES] p_0/k_B:  41.56501 [K], p_1: 3.18000 [A], shift/k_B:  -0.03908307 [K], tailcorrection: no
     He - CH3_sp3 [LENNARD_JONES] p_0/k_B:  34.31035 [K], p_1: 3.20000 [A], shift/k_B:  -0.03349802 [K], tailcorrection: no
     He - CH2_sp3 [LENNARD_JONES] p_0/k_B:  24.70627 [K], p_1: 3.30000 [A], shift/k_B:  -0.02901106 [K], tailcorrection: no
     He -  CH_sp3 [LENNARD_JONES] p_0/k_B:  13.61249 [K], p_1: 3.65500 [A], shift/k_B:  -0.02950032 [K], tailcorrection: no
     He -   C_sp3 [LENNARD_JONES] p_0/k_B:   2.95296 [K], p_1: 4.51000 [A], shift/k_B:  -0.02255724 [K], tailcorrection: no
     He -   C_co2 [LENNARD_JONES] p_0/k_B:  17.15517 [K], p_1: 2.72000 [A], shift/k_B:  -0.00631784 [K], tailcorrection: no
     He -   O_co2 [LENNARD_JONES] p_0/k_B:  29.34451 [K], p_1: 2.84500 [A], shift/k_B:  -0.01415038 [K], tailcorrection: no
     He -    N_n2 [LENNARD_JONES] p_0/k_B:  19.80909 [K], p_1: 2.97500 [A], shift/k_B:  -0.01248872 [K], tailcorrection: no
     He -    H_h2 [LENNARD_JONES] p_0/k_B:   9.13094 [K], p_1: 2.74300 [A], shift/k_B:  -0.00353695 [K], tailcorrection: no
     He -   H_com [LENNARD_JONES] p_0/k_B:  20.00075 [K], p_1: 2.79900 [A], shift/k_B:  -0.00874614 [K], tailcorrection: no
     He -      Ar [LENNARD_JONES] p_0/k_B:  36.13613 [K], p_1: 3.02000 [A], shift/k_B:  -0.02492921 [K], tailcorrection: no
     He -      Kr [LENNARD_JONES] p_0/k_B:  42.58826 [K], p_1: 3.13800 [A], shift/k_B:  -0.03697545 [K], tailcorrection: no
     He -      Xe [LENNARD_JONES] p_0/k_B:  49.08055 [K], p_1: 3.37000 [A], shift/k_B:  -0.06536485 [K], tailcorrection: no
     He -      F1 [LENNARD_JONES] p_0/k_B:  19.94153 [K], p_1: 2.86650 [A], shift/k_B:  -0.01006041 [K], tailcorrection: no
    Cr1 -     Cr1 [LENNARD_JONES] p_0/k_B:   7.54800 [K], p_1: 2.69300 [A], shift/k_B:  -0.00261826 [K], tailcorrection: no
    Cr1 -     Cr2 [LENNARD_JONES] p_0/k_B:   7.54800 [K], p_1: 2.69300 [A], shift/k_B:  -0.00261826 [K], tailcorrection: no
    Cr1 -      O1 [LENNARD_JONES] p_0/k_B:  19.06559 [K], p_1: 2.86300 [A], shift/k_B:  -0.00954826 [K], tailcorrection: no
    Cr1 -      O2 [LENNARD_JONES] p_0/k_B:  19.06559 [K], p_1: 2.86300 [A], shift/k_B:  -0.00954826 [K], tailcorrection: no
    Cr1 -      O3 [LENNARD_JONES] p_0/k_B:  19.06559 [K], p_1: 2.86300 [A], shift/k_B:  -0.00954826 [K], tailcorrection: no
    Cr1 -      C1 [LENNARD_JONES] p_0/k_B:  19.00571 [K], p_1: 3.08300 [A], shift/k_B:  -0.01484023 [K], tailcorrection: no
    Cr1 -      C2 [LENNARD_JONES] p_0/k_B:  19.00571 [K], p_1: 3.08300 [A], shift/k_B:  -0.01484023 [K], tailcorrection: no
    Cr1 -      C3 [LENNARD_JONES] p_0/k_B:  19.00571 [K], p_1: 3.08300 [A], shift/k_B:  -0.01484023 [K], tailcorrection: no
    Cr1 -      H1 [LENNARD_JONES] p_0/k_B:   7.59833 [K], p_1: 2.76950 [A], shift/k_B:  -0.00311804 [K], tailcorrection: no
    Cr1 -      F2 [LENNARD_JONES] p_0/k_B:  16.59439 [K], p_1: 2.89300 [A], shift/k_B:  -0.00884696 [K], tailcorrection: no
    Cr1 - CH4_sp3 [LENNARD_JONES] p_0/k_B:  34.58841 [K], p_1: 3.20650 [A], shift/k_B:  -0.03418306 [K], tailcorrection: no
    Cr1 - CH3_sp3 [LENNARD_JONES] p_0/k_B:  28.55143 [K], p_1: 3.22650 [A], shift/k_B:  -0.02928914 [K], tailcorrection: no
    Cr1 - CH2_sp3 [LENNARD_JONES] p_0/k_B:  20.55938 [K], p_1: 3.32650 [A], shift/k_B:  -0.02532803 [K], tailcorrection: no
    Cr1 -  CH_sp3 [LENNARD_JONES] p_0/k_B:  11.32767 [K], p_1: 3.68150 [A], shift/k_B:  -0.02563560 [K], tailcorrection: no
    Cr1 -   C_sp3 [LENNARD_JONES] p_0/k_B:   2.45732 [K], p_1: 4.53650 [A], shift/k_B:  -0.01944129 [K], tailcorrection: no
    Cr1 -   C_co2 [LENNARD_JONES] p_0/k_B:  14.27571 [K], p_1: 2.74650 [A], shift/k_B:  -0.00557228 [K], tailcorrection: no
    Cr1 -   O_co2 [LENNARD_JONES] p_0/k_B:  24.41909 [K], p_1: 2.87150 [A], shift/k_B:  -0.01244879 [K], tailcorrection: no
    Cr1 -    N_n2 [LENNARD_JONES] p_0/k_B:  16.48417 [K], p_1: 3.00150 [A], shift/k_B:  -0.01096037 [K], tailcorrection: no
    Cr1 -    H_h2 [LENNARD_JONES] p_0/k_B:   7.59833 [K], p_1: 2.76950 [A], shift/k_B:  -0.00311804 [K], tailcorrection: no
    Cr1 -   H_com [LENNARD_JONES] p_0/k_B:  16.64367 [K], p_1: 2.82550 [A], shift/k_B:  -0.00770142 [K], tailcorrection: no
    Cr1 -      Ar [LENNARD_JONES] p_0/k_B:  30.07076 [K], p_1: 3.04650 [A], shift/k_B:  -0.02186113 [K], tailcorrection: no
    Cr1 -      Kr [LENNARD_JONES] p_0/k_B:  35.43991 [K], p_1: 3.16450 [A], shift/k_B:  -0.03236117 [K], tailcorrection: no
    Cr1 -      Xe [LENNARD_JONES] p_0/k_B:  40.84248 [K], p_1: 3.39650 [A], shift/k_B:  -0.05700991 [K], tailcorrection: no
    Cr1 -      F1 [LENNARD_JONES] p_0/k_B:  16.59439 [K], p_1: 2.89300 [A], shift/k_B:  -0.00884696 [K], tailcorrection: no
    Cr2 -     Cr2 [LENNARD_JONES] p_0/k_B:   7.54800 [K], p_1: 2.69300 [A], shift/k_B:  -0.00261826 [K], tailcorrection: no
    Cr2 -      O1 [LENNARD_JONES] p_0/k_B:  19.06559 [K], p_1: 2.86300 [A], shift/k_B:  -0.00954826 [K], tailcorrection: no
    Cr2 -      O2 [LENNARD_JONES] p_0/k_B:  19.06559 [K], p_1: 2.86300 [A], shift/k_B:  -0.00954826 [K], tailcorrection: no
    Cr2 -      O3 [LENNARD_JONES] p_0/k_B:  19.06559 [K], p_1: 2.86300 [A], shift/k_B:  -0.00954826 [K], tailcorrection: no
    Cr2 -      C1 [LENNARD_JONES] p_0/k_B:  19.00571 [K], p_1: 3.08300 [A], shift/k_B:  -0.01484023 [K], tailcorrection: no
    Cr2 -      C2 [LENNARD_JONES] p_0/k_B:  19.00571 [K], p_1: 3.08300 [A], shift/k_B:  -0.01484023 [K], tailcorrection: no
    Cr2 -      C3 [LENNARD_JONES] p_0/k_B:  19.00571 [K], p_1: 3.08300 [A], shift/k_B:  -0.01484023 [K], tailcorrection: no
    Cr2 -      H1 [LENNARD_JONES] p_0/k_B:   7.59833 [K], p_1: 2.76950 [A], shift/k_B:  -0.00311804 [K], tailcorrection: no
    Cr2 -      F2 [LENNARD_JONES] p_0/k_B:  16.59439 [K], p_1: 2.89300 [A], shift/k_B:  -0.00884696 [K], tailcorrection: no
    Cr2 - CH4_sp3 [LENNARD_JONES] p_0/k_B:  34.58841 [K], p_1: 3.20650 [A], shift/k_B:  -0.03418306 [K], tailcorrection: no
    Cr2 - CH3_sp3 [LENNARD_JONES] p_0/k_B:  28.55143 [K], p_1: 3.22650 [A], shift/k_B:  -0.02928914 [K], tailcorrection: no
    Cr2 - CH2_sp3 [LENNARD_JONES] p_0/k_B:  20.55938 [K], p_1: 3.32650 [A], shift/k_B:  -0.02532803 [K], tailcorrection: no
    Cr2 -  CH_sp3 [LENNARD_JONES] p_0/k_B:  11.32767 [K], p_1: 3.68150 [A], shift/k_B:  -0.02563560 [K], tailcorrection: no
    Cr2 -   C_sp3 [LENNARD_JONES] p_0/k_B:   2.45732 [K], p_1: 4.53650 [A], shift/k_B:  -0.01944129 [K], tailcorrection: no
    Cr2 -   C_co2 [LENNARD_JONES] p_0/k_B:  14.27571 [K], p_1: 2.74650 [A], shift/k_B:  -0.00557228 [K], tailcorrection: no
    Cr2 -   O_co2 [LENNARD_JONES] p_0/k_B:  24.41909 [K], p_1: 2.87150 [A], shift/k_B:  -0.01244879 [K], tailcorrection: no
    Cr2 -    N_n2 [LENNARD_JONES] p_0/k_B:  16.48417 [K], p_1: 3.00150 [A], shift/k_B:  -0.01096037 [K], tailcorrection: no
    Cr2 -    H_h2 [LENNARD_JONES] p_0/k_B:   7.59833 [K], p_1: 2.76950 [A], shift/k_B:  -0.00311804 [K], tailcorrection: no
    Cr2 -   H_com [LENNARD_JONES] p_0/k_B:  16.64367 [K], p_1: 2.82550 [A], shift/k_B:  -0.00770142 [K], tailcorrection: no
    Cr2 -      Ar [LENNARD_JONES] p_0/k_B:  30.07076 [K], p_1: 3.04650 [A], shift/k_B:  -0.02186113 [K], tailcorrection: no
    Cr2 -      Kr [LENNARD_JONES] p_0/k_B:  35.43991 [K], p_1: 3.16450 [A], shift/k_B:  -0.03236117 [K], tailcorrection: no
    Cr2 -      Xe [LENNARD_JONES] p_0/k_B:  40.84248 [K], p_1: 3.39650 [A], shift/k_B:  -0.05700991 [K], tailcorrection: no
    Cr2 -      F1 [LENNARD_JONES] p_0/k_B:  16.59439 [K], p_1: 2.89300 [A], shift/k_B:  -0.00884696 [K], tailcorrection: no
     O1 -      O1 [LENNARD_JONES] p_0/k_B:  48.15800 [K], p_1: 3.03300 [A], shift/k_B:  -0.03408994 [K], tailcorrection: no
     O1 -      O2 [LENNARD_JONES] p_0/k_B:  48.15800 [K], p_1: 3.03300 [A], shift/k_B:  -0.03408994 [K], tailcorrection: no
     O1 -      O3 [LENNARD_JONES] p_0/k_B:  48.15800 [K], p_1: 3.03300 [A], shift/k_B:  -0.03408994 [K], tailcorrection: no
     O1 -      C1 [LENNARD_JONES] p_0/k_B:  48.00676 [K], p_1: 3.25300 [A], shift/k_B:  -0.05172374 [K], tailcorrection: no
     O1 -      C2 [LENNARD_JONES] p_0/k_B:  48.00676 [K], p_1: 3.25300 [A], shift/k_B:  -0.05172374 [K], tailcorrection: no
     O1 -      C3 [LENNARD_JONES] p_0/k_B:  48.00676 [K], p_1: 3.25300 [A], shift/k_B:  -0.05172374 [K], tailcorrection: no
     O1 -      H1 [LENNARD_JONES] p_0/k_B:  19.19272 [K], p_1: 2.93950 [A], shift/k_B:  -0.01125936 [K], tailcorrection: no
     O1 -      F2 [LENNARD_JONES] p_0/k_B:  41.91597 [K], p_1: 3.06300 [A], shift/k_B:  -0.03147604 [K], tailcorrection: no
     O1 - CH4_sp3 [LENNARD_JONES] p_0/k_B:  87.36729 [K], p_1: 3.37650 [A], shift/k_B:  -0.11770725 [K], tailcorrection: no
     O1 - CH3_sp3 [LENNARD_JONES] p_0/k_B:  72.11840 [K], p_1: 3.39650 [A], shift/k_B:  -0.10066636 [K], tailcorrection: no
     O1 - CH2_sp3 [LENNARD_JONES] p_0/k_B:  51.93119 [K], p_1: 3.49650 [A], shift/k_B:  -0.08626788 [K], tailcorrection: no
     O1 -  CH_sp3 [LENNARD_JONES] p_0/k_B:  28.61269 [K], p_1: 3.85150 [A], shift/k_B:  -0.08488204 [K], tailcorrection: no
     O1 -   C_sp3 [LENNARD_JONES] p_0/k_B:   6.20696 [K], p_1: 4.70650 [A], shift/k_B:  -0.06120588 [K], tailcorrection: no
     O1 -   C_co2 [LENNARD_JONES] p_0/k_B:  36.05920 [K], p_1: 2.91650 [A], shift/k_B:  -0.02018029 [K], tailcorrection: no
     O1 -   O_co2 [LENNARD_JONES] p_0/k_B:  61.68048 [K], p_1: 3.04150 [A], shift/k_B:  -0.04440140 [K], tailcorrection: no
     O1 -    N_n2 [LENNARD_JONES] p_0/k_B:  41.63758 [K], p_1: 3.17150 [A], shift/k_B:  -0.03852773 [K], tailcorrection: no
     O1 -    H_h2 [LENNARD_JONES] p_0/k_B:  19.19272 [K], p_1: 2.93950 [A], shift/k_B:  -0.01125936 [K], tailcorrection: no
     O1 -   H_com [LENNARD_JONES] p_0/k_B:  42.04044 [K], p_1: 2.99550 [A], shift/k_B:  -0.02761926 [K], tailcorrection: no
     O1 -      Ar [LENNARD_JONES] p_0/k_B:  75.95610 [K], p_1: 3.21650 [A], shift/k_B:  -0.07648121 [K], tailcorrection: no
     O1 -      Kr [LENNARD_JONES] p_0/k_B:  89.51811 [K], p_1: 3.33450 [A], shift/k_B:  -0.11188185 [K], tailcorrection: no
     O1 -      Xe [LENNARD_JONES] p_0/k_B: 103.16452 [K], p_1: 3.56650 [A], shift/k_B:  -0.19301036 [K], tailcorrection: no
     O1 -      F1 [LENNARD_JONES] p_0/k_B:  41.91597 [K], p_1: 3.06300 [A], shift/k_B:  -0.03147604 [K], tailcorrection: no
     O2 -      O2 [LENNARD_JONES] p_0/k_B:  48.15800 [K], p_1: 3.03300 [A], shift/k_B:  -0.03408994 [K], tailcorrection: no
     O2 -      O3 [LENNARD_JONES] p_0/k_B:  48.15800 [K], p_1: 3.03300 [A], shift/k_B:  -0.03408994 [K], tailcorrection: no
     O2 -      C1 [LENNARD_JONES] p_0/k_B:  48.00676 [K], p_1: 3.25300 [A], shift/k_B:  -0.05172374 [K], tailcorrection: no
     O2 -      C2 [LENNARD_JONES] p_0/k_B:  48.00676 [K], p_1: 3.25300 [A], shift/k_B:  -0.05172374 [K], tailcorrection: no
     O2 -      C3 [LENNARD_JONES] p_0/k_B:  48.00676 [K], p_1: 3.25300 [A], shift/k_B:  -0.05172374 [K], tailcorrection: no
     O2 -      H1 [LENNARD_JONES] p_0/k_B:  19.19272 [K], p_1: 2.93950 [A], shift/k_B:  -0.01125936 [K], tailcorrection: no
     O2 -      F2 [LENNARD_JONES] p_0/k_B:  41.91597 [K], p_1: 3.06300 [A], shift/k_B:  -0.03147604 [K], tailcorrection: no
     O2 - CH4_sp3 [LENNARD_JONES] p_0/k_B:  87.36729 [K], p_1: 3.37650 [A], shift/k_B:  -0.11770725 [K], tailcorrection: no
     O2 - CH3_sp3 [LENNARD_JONES] p_0/k_B:  72.11840 [K], p_1: 3.39650 [A], shift/k_B:  -0.10066636 [K], tailcorrection: no
     O2 - CH2_sp3 [LENNARD_JONES] p_0/k_B:  51.93119 [K], p_1: 3.49650 [A], shift/k_B:  -0.08626788 [K], tailcorrection: no
     O2 -  CH_sp3 [LENNARD_JONES] p_0/k_B:  28.61269 [K], p_1: 3.85150 [A], shift/k_B:  -0.08488204 [K], tailcorrection: no
     O2 -   C_sp3 [LENNARD_JONES] p_0/k_B:   6.20696 [K], p_1: 4.70650 [A], shift/k_B:  -0.06120588 [K], tailcorrection: no
     O2 -   C_co2 [LENNARD_JONES] p_0/k_B:  36.05920 [K], p_1: 2.91650 [A], shift/k_B:  -0.02018029 [K], tailcorrection: no
     O2 -   O_co2 [LENNARD_JONES] p_0/k_B:  61.68048 [K], p_1: 3.04150 [A], shift/k_B:  -0.04440140 [K], tailcorrection: no
     O2 -    N_n2 [LENNARD_JONES] p_0/k_B:  41.63758 [K], p_1: 3.17150 [A], shift/k_B:  -0.03852773 [K], tailcorrection: no
     O2 -    H_h2 [LENNARD_JONES] p_0/k_B:  19.19272 [K], p_1: 2.93950 [A], shift/k_B:  -0.01125936 [K], tailcorrection: no
     O2 -   H_com [LENNARD_JONES] p_0/k_B:  42.04044 [K], p_1: 2.99550 [A], shift/k_B:  -0.02761926 [K], tailcorrection: no
     O2 -      Ar [LENNARD_JONES] p_0/k_B:  75.95610 [K], p_1: 3.21650 [A], shift/k_B:  -0.07648121 [K], tailcorrection: no
     O2 -      Kr [LENNARD_JONES] p_0/k_B:  89.51811 [K], p_1: 3.33450 [A], shift/k_B:  -0.11188185 [K], tailcorrection: no
     O2 -      Xe [LENNARD_JONES] p_0/k_B: 103.16452 [K], p_1: 3.56650 [A], shift/k_B:  -0.19301036 [K], tailcorrection: no
     O2 -      F1 [LENNARD_JONES] p_0/k_B:  41.91597 [K], p_1: 3.06300 [A], shift/k_B:  -0.03147604 [K], tailcorrection: no
     O3 -      O3 [LENNARD_JONES] p_0/k_B:  48.15800 [K], p_1: 3.03300 [A], shift/k_B:  -0.03408994 [K], tailcorrection: no
     O3 -      C1 [LENNARD_JONES] p_0/k_B:  48.00676 [K], p_1: 3.25300 [A], shift/k_B:  -0.05172374 [K], tailcorrection: no
     O3 -      C2 [LENNARD_JONES] p_0/k_B:  48.00676 [K], p_1: 3.25300 [A], shift/k_B:  -0.05172374 [K], tailcorrection: no
     O3 -      C3 [LENNARD_JONES] p_0/k_B:  48.00676 [K], p_1: 3.25300 [A], shift/k_B:  -0.05172374 [K], tailcorrection: no
     O3 -      H1 [LENNARD_JONES] p_0/k_B:  19.19272 [K], p_1: 2.93950 [A], shift/k_B:  -0.01125936 [K], tailcorrection: no
     O3 -      F2 [LENNARD_JONES] p_0/k_B:  41.91597 [K], p_1: 3.06300 [A], shift/k_B:  -0.03147604 [K], tailcorrection: no
     O3 - CH4_sp3 [LENNARD_JONES] p_0/k_B:  87.36729 [K], p_1: 3.37650 [A], shift/k_B:  -0.11770725 [K], tailcorrection: no
     O3 - CH3_sp3 [LENNARD_JONES] p_0/k_B:  72.11840 [K], p_1: 3.39650 [A], shift/k_B:  -0.10066636 [K], tailcorrection: no
     O3 - CH2_sp3 [LENNARD_JONES] p_0/k_B:  51.93119 [K], p_1: 3.49650 [A], shift/k_B:  -0.08626788 [K], tailcorrection: no
     O3 -  CH_sp3 [LENNARD_JONES] p_0/k_B:  28.61269 [K], p_1: 3.85150 [A], shift/k_B:  -0.08488204 [K], tailcorrection: no
     O3 -   C_sp3 [LENNARD_JONES] p_0/k_B:   6.20696 [K], p_1: 4.70650 [A], shift/k_B:  -0.06120588 [K], tailcorrection: no
     O3 -   C_co2 [LENNARD_JONES] p_0/k_B:  36.05920 [K], p_1: 2.91650 [A], shift/k_B:  -0.02018029 [K], tailcorrection: no
     O3 -   O_co2 [LENNARD_JONES] p_0/k_B:  61.68048 [K], p_1: 3.04150 [A], shift/k_B:  -0.04440140 [K], tailcorrection: no
     O3 -    N_n2 [LENNARD_JONES] p_0/k_B:  41.63758 [K], p_1: 3.17150 [A], shift/k_B:  -0.03852773 [K], tailcorrection: no
     O3 -    H_h2 [LENNARD_JONES] p_0/k_B:  19.19272 [K], p_1: 2.93950 [A], shift/k_B:  -0.01125936 [K], tailcorrection: no
     O3 -   H_com [LENNARD_JONES] p_0/k_B:  42.04044 [K], p_1: 2.99550 [A], shift/k_B:  -0.02761926 [K], tailcorrection: no
     O3 -      Ar [LENNARD_JONES] p_0/k_B:  75.95610 [K], p_1: 3.21650 [A], shift/k_B:  -0.07648121 [K], tailcorrection: no
     O3 -      Kr [LENNARD_JONES] p_0/k_B:  89.51811 [K], p_1: 3.33450 [A], shift/k_B:  -0.11188185 [K], tailcorrection: no
     O3 -      Xe [LENNARD_JONES] p_0/k_B: 103.16452 [K], p_1: 3.56650 [A], shift/k_B:  -0.19301036 [K], tailcorrection: no
     O3 -      F1 [LENNARD_JONES] p_0/k_B:  41.91597 [K], p_1: 3.06300 [A], shift/k_B:  -0.03147604 [K], tailcorrection: no
     C1 -      C1 [LENNARD_JONES] p_0/k_B:  47.85600 [K], p_1: 3.47300 [A], shift/k_B:  -0.07634700 [K], tailcorrection: no
     C1 -      C2 [LENNARD_JONES] p_0/k_B:  47.85600 [K], p_1: 3.47300 [A], shift/k_B:  -0.07634700 [K], tailcorrection: no
     C1 -      C3 [LENNARD_JONES] p_0/k_B:  47.85600 [K], p_1: 3.47300 [A], shift/k_B:  -0.07634700 [K], tailcorrection: no
     C1 -      H1 [LENNARD_JONES] p_0/k_B:  19.13245 [K], p_1: 3.15950 [A], shift/k_B:  -0.01730544 [K], tailcorrection: no
     C1 -      F2 [LENNARD_JONES] p_0/k_B:  41.78433 [K], p_1: 3.28300 [A], shift/k_B:  -0.04756804 [K], tailcorrection: no
     C1 - CH4_sp3 [LENNARD_JONES] p_0/k_B:  87.09292 [K], p_1: 3.59650 [A], shift/k_B:  -0.17133640 [K], tailcorrection: no
     C1 - CH3_sp3 [LENNARD_JONES] p_0/k_B:  71.89192 [K], p_1: 3.61650 [A], shift/k_B:  -0.14621438 [K], tailcorrection: no
     C1 - CH2_sp3 [LENNARD_JONES] p_0/k_B:  51.76810 [K], p_1: 3.71650 [A], shift/k_B:  -0.12399578 [K], tailcorrection: no
     C1 -  CH_sp3 [LENNARD_JONES] p_0/k_B:  28.52283 [K], p_1: 4.07150 [A], shift/k_B:  -0.11805093 [K], tailcorrection: no
     C1 -   C_sp3 [LENNARD_JONES] p_0/k_B:   6.18747 [K], p_1: 4.92650 [A], shift/k_B:  -0.08019185 [K], tailcorrection: no
     C1 -   C_co2 [LENNARD_JONES] p_0/k_B:  35.94596 [K], p_1: 3.13650 [A], shift/k_B:  -0.03111917 [K], tailcorrection: no
     C1 -   O_co2 [LENNARD_JONES] p_0/k_B:  61.48678 [K], p_1: 3.26150 [A], shift/k_B:  -0.06729260 [K], tailcorrection: no
     C1 -    N_n2 [LENNARD_JONES] p_0/k_B:  41.50682 [K], p_1: 3.39150 [A], shift/k_B:  -0.05742755 [K], tailcorrection: no
     C1 -    H_h2 [LENNARD_JONES] p_0/k_B:  19.13245 [K], p_1: 3.15950 [A], shift/k_B:  -0.01730544 [K], tailcorrection: no
     C1 -   H_com [LENNARD_JONES] p_0/k_B:  41.90841 [K], p_1: 3.21550 [A], shift/k_B:  -0.04211951 [K], tailcorrection: no
     C1 -      Ar [LENNARD_JONES] p_0/k_B:  75.71756 [K], p_1: 3.43650 [A], shift/k_B:  -0.11337889 [K], tailcorrection: no
     C1 -      Kr [LENNARD_JONES] p_0/k_B:  89.23698 [K], p_1: 3.55450 [A], shift/k_B:  -0.16361267 [K], tailcorrection: no
     C1 -      Xe [LENNARD_JONES] p_0/k_B: 102.84054 [K], p_1: 3.78650 [A], shift/k_B:  -0.27548702 [K], tailcorrection: no
     C1 -      F1 [LENNARD_JONES] p_0/k_B:  41.78433 [K], p_1: 3.28300 [A], shift/k_B:  -0.04756804 [K], tailcorrection: no
     C2 -      C2 [LENNARD_JONES] p_0/k_B:  47.85600 [K], p_1: 3.47300 [A], shift/k_B:  -0.07634700 [K], tailcorrection: no
     C2 -      C3 [LENNARD_JONES] p_0/k_B:  47.85600 [K], p_1: 3.47300 [A], shift/k_B:  -0.07634700 [K], tailcorrection: no
     C2 -      H1 [LENNARD_JONES] p_0/k_B:  19.13245 [K], p_1: 3.15950 [A], shift/k_B:  -0.01730544 [K], tailcorrection: no
     C2 -      F2 [LENNARD_JONES] p_0/k_B:  41.78433 [K], p_1: 3.28300 [A], shift/k_B:  -0.04756804 [K], tailcorrection: no
     C2 - CH4_sp3 [LENNARD_JONES] p_0/k_B:  87.09292 [K], p_1: 3.59650 [A], shift/k_B:  -0.17133640 [K], tailcorrection: no
     C2 - CH3_sp3 [LENNARD_JONES] p_0/k_B:  71.89192 [K], p_1: 3.61650 [A], shift/k_B:  -0.14621438 [K], tailcorrection: no
     C2 - CH2_sp3 [LENNARD_JONES] p_0/k_B:  51.76810 [K], p_1: 3.71650 [A], shift/k_B:  -0.12399578 [K], tailcorrection: no
     C2 -  CH_sp3 [LENNARD_JONES] p_0/k_B:  28.52283 [K], p_1: 4.07150 [A], shift/k_B:  -0.11805093 [K], tailcorrection: no
     C2 -   C_sp3 [LENNARD_JONES] p_0/k_B:   6.18747 [K], p_1: 4.92650 [A], shift/k_B:  -0.08019185 [K], tailcorrection: no
     C2 -   C_co2 [LENNARD_JONES] p_0/k_B:  35.94596 [K], p_1: 3.13650 [A], shift/k_B:  -0.03111917 [K], tailcorrection: no
     C2 -   O_co2 [LENNARD_JONES] p_0/k_B:  61.48678 [K], p_1: 3.26150 [A], shift/k_B:  -0.06729260 [K], tailcorrection: no
     C2 -    N_n2 [LENNARD_JONES] p_0/k_B:  41.50682 [K], p_1: 3.39150 [A], shift/k_B:  -0.05742755 [K], tailcorrection: no
     C2 -    H_h2 [LENNARD_JONES] p_0/k_B:  19.13245 [K], p_1: 3.15950 [A], shift/k_B:  -0.01730544 [K], tailcorrection: no
     C2 -   H_com [LENNARD_JONES] p_0/k_B:  41.90841 [K], p_1: 3.21550 [A], shift/k_B:  -0.04211951 [K], tailcorrection: no
     C2 -      Ar [LENNARD_JONES] p_0/k_B:  75.71756 [K], p_1: 3.43650 [A], shift/k_B:  -0.11337889 [K], tailcorrection: no
     C2 -      Kr [LENNARD_JONES] p_0/k_B:  89.23698 [K], p_1: 3.55450 [A], shift/k_B:  -0.16361267 [K], tailcorrection: no
     C2 -      Xe [LENNARD_JONES] p_0/k_B: 102.84054 [K], p_1: 3.78650 [A], shift/k_B:  -0.27548702 [K], tailcorrection: no
     C2 -      F1 [LENNARD_JONES] p_0/k_B:  41.78433 [K], p_1: 3.28300 [A], shift/k_B:  -0.04756804 [K], tailcorrection: no
     C3 -      C3 [LENNARD_JONES] p_0/k_B:  47.85600 [K], p_1: 3.47300 [A], shift/k_B:  -0.07634700 [K], tailcorrection: no
     C3 -      H1 [LENNARD_JONES] p_0/k_B:  19.13245 [K], p_1: 3.15950 [A], shift/k_B:  -0.01730544 [K], tailcorrection: no
     C3 -      F2 [LENNARD_JONES] p_0/k_B:  41.78433 [K], p_1: 3.28300 [A], shift/k_B:  -0.04756804 [K], tailcorrection: no
     C3 - CH4_sp3 [LENNARD_JONES] p_0/k_B:  87.09292 [K], p_1: 3.59650 [A], shift/k_B:  -0.17133640 [K], tailcorrection: no
     C3 - CH3_sp3 [LENNARD_JONES] p_0/k_B:  71.89192 [K], p_1: 3.61650 [A], shift/k_B:  -0.14621438 [K], tailcorrection: no
     C3 - CH2_sp3 [LENNARD_JONES] p_0/k_B:  51.76810 [K], p_1: 3.71650 [A], shift/k_B:  -0.12399578 [K], tailcorrection: no
     C3 -  CH_sp3 [LENNARD_JONES] p_0/k_B:  28.52283 [K], p_1: 4.07150 [A], shift/k_B:  -0.11805093 [K], tailcorrection: no
     C3 -   C_sp3 [LENNARD_JONES] p_0/k_B:   6.18747 [K], p_1: 4.92650 [A], shift/k_B:  -0.08019185 [K], tailcorrection: no
     C3 -   C_co2 [LENNARD_JONES] p_0/k_B:  35.94596 [K], p_1: 3.13650 [A], shift/k_B:  -0.03111917 [K], tailcorrection: no
     C3 -   O_co2 [LENNARD_JONES] p_0/k_B:  61.48678 [K], p_1: 3.26150 [A], shift/k_B:  -0.06729260 [K], tailcorrection: no
     C3 -    N_n2 [LENNARD_JONES] p_0/k_B:  41.50682 [K], p_1: 3.39150 [A], shift/k_B:  -0.05742755 [K], tailcorrection: no
     C3 -    H_h2 [LENNARD_JONES] p_0/k_B:  19.13245 [K], p_1: 3.15950 [A], shift/k_B:  -0.01730544 [K], tailcorrection: no
     C3 -   H_com [LENNARD_JONES] p_0/k_B:  41.90841 [K], p_1: 3.21550 [A], shift/k_B:  -0.04211951 [K], tailcorrection: no
     C3 -      Ar [LENNARD_JONES] p_0/k_B:  75.71756 [K], p_1: 3.43650 [A], shift/k_B:  -0.11337889 [K], tailcorrection: no
     C3 -      Kr [LENNARD_JONES] p_0/k_B:  89.23698 [K], p_1: 3.55450 [A], shift/k_B:  -0.16361267 [K], tailcorrection: no
     C3 -      Xe [LENNARD_JONES] p_0/k_B: 102.84054 [K], p_1: 3.78650 [A], shift/k_B:  -0.27548702 [K], tailcorrection: no
     C3 -      F1 [LENNARD_JONES] p_0/k_B:  41.78433 [K], p_1: 3.28300 [A], shift/k_B:  -0.04756804 [K], tailcorrection: no
     H1 -      H1 [LENNARD_JONES] p_0/k_B:   7.64900 [K], p_1: 2.84600 [A], shift/k_B:  -0.00369625 [K], tailcorrection: no
     H1 -      F2 [LENNARD_JONES] p_0/k_B:  16.70504 [K], p_1: 2.96950 [A], shift/k_B:  -0.01041550 [K], tailcorrection: no
     H1 - CH4_sp3 [LENNARD_JONES] p_0/k_B:  34.81905 [K], p_1: 3.28300 [A], shift/k_B:  -0.03963864 [K], tailcorrection: no
     H1 - CH3_sp3 [LENNARD_JONES] p_0/k_B:  28.74182 [K], p_1: 3.30300 [A], shift/k_B:  -0.03393420 [K], tailcorrection: no
     H1 - CH2_sp3 [LENNARD_JONES] p_0/k_B:  20.69647 [K], p_1: 3.40300 [A], shift/k_B:  -0.02922233 [K], tailcorrection: no
     H1 -  CH_sp3 [LENNARD_JONES] p_0/k_B:  11.40320 [K], p_1: 3.75800 [A], shift/k_B:  -0.02919372 [K], tailcorrection: no
     H1 -   C_sp3 [LENNARD_JONES] p_0/k_B:   2.47370 [K], p_1: 4.61300 [A], shift/k_B:  -0.02163195 [K], tailcorrection: no
     H1 -   C_co2 [LENNARD_JONES] p_0/k_B:  14.37091 [K], p_1: 2.82300 [A], shift/k_B:  -0.00661454 [K], tailcorrection: no
     H1 -   O_co2 [LENNARD_JONES] p_0/k_B:  24.58192 [K], p_1: 2.94800 [A], shift/k_B:  -0.01467290 [K], tailcorrection: no
     H1 -    N_n2 [LENNARD_JONES] p_0/k_B:  16.59410 [K], p_1: 3.07800 [A], shift/k_B:  -0.01283162 [K], tailcorrection: no
     H1 -    H_h2 [LENNARD_JONES] p_0/k_B:   7.64900 [K], p_1: 2.84600 [A], shift/k_B:  -0.00369625 [K], tailcorrection: no
     H1 -   H_com [LENNARD_JONES] p_0/k_B:  16.75465 [K], p_1: 2.90200 [A], shift/k_B:  -0.00910041 [K], tailcorrection: no
     H1 -      Ar [LENNARD_JONES] p_0/k_B:  30.27128 [K], p_1: 3.12300 [A], shift/k_B:  -0.02553708 [K], tailcorrection: no
     H1 -      Kr [LENNARD_JONES] p_0/k_B:  35.67623 [K], p_1: 3.24100 [A], shift/k_B:  -0.03759576 [K], tailcorrection: no
     H1 -      Xe [LENNARD_JONES] p_0/k_B:  41.11483 [K], p_1: 3.47300 [A], shift/k_B:  -0.06559248 [K], tailcorrection: no
     H1 -      F1 [LENNARD_JONES] p_0/k_B:  16.70504 [K], p_1: 2.96950 [A], shift/k_B:  -0.01041550 [K], tailcorrection: no
     F2 -      F2 [LENNARD_JONES] p_0/k_B:  36.48300 [K], p_1: 3.09300 [A], shift/k_B:  -0.02904583 [K], tailcorrection: no
     F2 - CH4_sp3 [LENNARD_JONES] p_0/k_B:  76.04312 [K], p_1: 3.40650 [A], shift/k_B:  -0.10803292 [K], tailcorrection: no
     F2 - CH3_sp3 [LENNARD_JONES] p_0/k_B:  62.77073 [K], p_1: 3.42650 [A], shift/k_B:  -0.09236382 [K], tailcorrection: no
     F2 - CH2_sp3 [LENNARD_JONES] p_0/k_B:  45.20009 [K], p_1: 3.52650 [A], shift/k_B:  -0.07903379 [K], tailcorrection: no
     F2 -  CH_sp3 [LENNARD_JONES] p_0/k_B:  24.90404 [K], p_1: 3.88150 [A], shift/k_B:  -0.07739798 [K], tailcorrection: no
     F2 -   C_sp3 [LENNARD_JONES] p_0/k_B:   5.40244 [K], p_1: 4.73650 [A], shift/k_B:  -0.05533747 [K], tailcorrection: no
     F2 -   C_co2 [LENNARD_JONES] p_0/k_B:  31.38536 [K], p_1: 2.94650 [A], shift/k_B:  -0.01867675 [K], tailcorrection: no
     F2 -   O_co2 [LENNARD_JONES] p_0/k_B:  53.68572 [K], p_1: 3.07150 [A], shift/k_B:  -0.04099012 [K], tailcorrection: no
     F2 -    N_n2 [LENNARD_JONES] p_0/k_B:  36.24070 [K], p_1: 3.20150 [A], shift/k_B:  -0.03548227 [K], tailcorrection: no
     F2 -    H_h2 [LENNARD_JONES] p_0/k_B:  16.70504 [K], p_1: 2.96950 [A], shift/k_B:  -0.01041550 [K], tailcorrection: no
     F2 -   H_com [LENNARD_JONES] p_0/k_B:  36.59134 [K], p_1: 3.02550 [A], shift/k_B:  -0.02552029 [K], tailcorrection: no
     F2 -      Ar [LENNARD_JONES] p_0/k_B:  66.11099 [K], p_1: 3.24650 [A], shift/k_B:  -0.07038023 [K], tailcorrection: no
     F2 -      Kr [LENNARD_JONES] p_0/k_B:  77.91515 [K], p_1: 3.36450 [A], shift/k_B:  -0.10275478 [K], tailcorrection: no
     F2 -      Xe [LENNARD_JONES] p_0/k_B:  89.79278 [K], p_1: 3.59650 [A], shift/k_B:  -0.17664779 [K], tailcorrection: no
     F2 -      F1 [LENNARD_JONES] p_0/k_B:  36.48300 [K], p_1: 3.09300 [A], shift/k_B:  -0.02904583 [K], tailcorrection: no
CH4_sp3 - CH4_sp3 [LENNARD_JONES] p_0/k_B: 158.50000 [K], p_1: 3.72000 [A], shift/k_B:  -0.38179067 [K], tailcorrection: no
CH4_sp3 - CH3_sp3 [LENNARD_JONES] p_0/k_B: 130.83577 [K], p_1: 3.74000 [A], shift/k_B:  -0.32545127 [K], tailcorrection: no
CH4_sp3 - CH2_sp3 [LENNARD_JONES] p_0/k_B:  94.21253 [K], p_1: 3.84000 [A], shift/k_B:  -0.27452345 [K], tailcorrection: no
CH4_sp3 -  CH_sp3 [LENNARD_JONES] p_0/k_B:  51.90857 [K], p_1: 4.19500 [A], shift/k_B:  -0.25697600 [K], tailcorrection: no
CH4_sp3 -   C_sp3 [LENNARD_JONES] p_0/k_B:  11.26055 [K], p_1: 5.05000 [A], shift/k_B:  -0.16922602 [K], tailcorrection: no
CH4_sp3 -   C_co2 [LENNARD_JONES] p_0/k_B:  65.41789 [K], p_1: 3.26000 [A], shift/k_B:  -0.07139762 [K], tailcorrection: no
CH4_sp3 -   O_co2 [LENNARD_JONES] p_0/k_B: 111.89951 [K], p_1: 3.38500 [A], shift/k_B:  -0.15304946 [K], tailcorrection: no
CH4_sp3 -    N_n2 [LENNARD_JONES] p_0/k_B:  75.53807 [K], p_1: 3.51500 [A], shift/k_B:  -0.12951848 [K], tailcorrection: no
CH4_sp3 -    H_h2 [LENNARD_JONES] p_0/k_B:  34.81905 [K], p_1: 3.28300 [A], shift/k_B:  -0.03963864 [K], tailcorrection: no
CH4_sp3 -   H_com [LENNARD_JONES] p_0/k_B:  76.26893 [K], p_1: 3.33900 [A], shift/k_B:  -0.09609692 [K], tailcorrection: no
CH4_sp3 -      Ar [LENNARD_JONES] p_0/k_B: 137.79804 [K], p_1: 3.56000 [A], shift/k_B:  -0.25500115 [K], tailcorrection: no
CH4_sp3 -      Kr [LENNARD_JONES] p_0/k_B: 162.40197 [K], p_1: 3.67800 [A], shift/k_B:  -0.36544102 [K], tailcorrection: no
CH4_sp3 -      Xe [LENNARD_JONES] p_0/k_B: 187.15902 [K], p_1: 3.91000 [A], shift/k_B:  -0.60774095 [K], tailcorrection: no
CH4_sp3 -      F1 [LENNARD_JONES] p_0/k_B:  76.04312 [K], p_1: 3.40650 [A], shift/k_B:  -0.10803292 [K], tailcorrection: no
CH3_sp3 - CH3_sp3 [LENNARD_JONES] p_0/k_B: 108.00000 [K], p_1: 3.76000 [A], shift/k_B:  -0.27737791 [K], tailcorrection: no
CH3_sp3 - CH2_sp3 [LENNARD_JONES] p_0/k_B:  77.76889 [K], p_1: 3.86000 [A], shift/k_B:  -0.23377773 [K], tailcorrection: no
CH3_sp3 -  CH_sp3 [LENNARD_JONES] p_0/k_B:  42.84857 [K], p_1: 4.21500 [A], shift/k_B:  -0.21825685 [K], tailcorrection: no
CH3_sp3 -   C_sp3 [LENNARD_JONES] p_0/k_B:   9.29516 [K], p_1: 5.07000 [A], shift/k_B:  -0.14302910 [K], tailcorrection: no
CH3_sp3 -   C_co2 [LENNARD_JONES] p_0/k_B:  54.00000 [K], p_1: 3.28000 [A], shift/k_B:  -0.06113839 [K], tailcorrection: no
CH3_sp3 -   O_co2 [LENNARD_JONES] p_0/k_B:  92.36883 [K], p_1: 3.40500 [A], shift/k_B:  -0.13088033 [K], tailcorrection: no
CH3_sp3 -    N_n2 [LENNARD_JONES] p_0/k_B:  62.35383 [K], p_1: 3.53500 [A], shift/k_B:  -0.11061323 [K], tailcorrection: no
CH3_sp3 -    H_h2 [LENNARD_JONES] p_0/k_B:  28.74182 [K], p_1: 3.30300 [A], shift/k_B:  -0.03393420 [K], tailcorrection: no
CH3_sp3 -   H_com [LENNARD_JONES] p_0/k_B:  62.95713 [K], p_1: 3.35900 [A], shift/k_B:  -0.08221731 [K], tailcorrection: no
CH3_sp3 -      Ar [LENNARD_JONES] p_0/k_B: 113.74709 [K], p_1: 3.58000 [A], shift/k_B:  -0.21768609 [K], tailcorrection: no
CH3_sp3 -      Kr [LENNARD_JONES] p_0/k_B: 134.05670 [K], p_1: 3.69800 [A], shift/k_B:  -0.31162877 [K], tailcorrection: no
CH3_sp3 -      Xe [LENNARD_JONES] p_0/k_B: 154.49272 [K], p_1: 3.93000 [A], shift/k_B:  -0.51724884 [K], tailcorrection: no
CH3_sp3 -      F1 [LENNARD_JONES] p_0/k_B:  62.77073 [K], p_1: 3.42650 [A], shift/k_B:  -0.09236382 [K], tailcorrection: no
CH2_sp3 - CH2_sp3 [LENNARD_JONES] p_0/k_B:  56.00000 [K], p_1: 3.96000 [A], shift/k_B:  -0.19623585 [K], tailcorrection: no
CH2_sp3 -  CH_sp3 [LENNARD_JONES] p_0/k_B:  30.85450 [K], p_1: 4.31500 [A], shift/k_B:  -0.18086960 [K], tailcorrection: no
CH2_sp3 -   C_sp3 [LENNARD_JONES] p_0/k_B:   6.69328 [K], p_1: 5.17000 [A], shift/k_B:  -0.11574245 [K], tailcorrection: no
CH2_sp3 -   C_co2 [LENNARD_JONES] p_0/k_B:  38.88444 [K], p_1: 3.38000 [A], shift/k_B:  -0.05271437 [K], tailcorrection: no
CH2_sp3 -   O_co2 [LENNARD_JONES] p_0/k_B:  66.51316 [K], p_1: 3.50500 [A], shift/k_B:  -0.11211217 [K], tailcorrection: no
CH2_sp3 -    N_n2 [LENNARD_JONES] p_0/k_B:  44.89989 [K], p_1: 3.63500 [A], shift/k_B:  -0.09415515 [K], tailcorrection: no
CH2_sp3 -    H_h2 [LENNARD_JONES] p_0/k_B:  20.69647 [K], p_1: 3.40300 [A], shift/k_B:  -0.02922233 [K], tailcorrection: no
CH2_sp3 -   H_com [LENNARD_JONES] p_0/k_B:  45.33431 [K], p_1: 3.45900 [A], shift/k_B:  -0.07059297 [K], tailcorrection: no
CH2_sp3 -      Ar [LENNARD_JONES] p_0/k_B:  81.90726 [K], p_1: 3.68000 [A], shift/k_B:  -0.18491161 [K], tailcorrection: no
CH2_sp3 -      Kr [LENNARD_JONES] p_0/k_B:  96.53186 [K], p_1: 3.79800 [A], shift/k_B:  -0.26333230 [K], tailcorrection: no
CH2_sp3 -      Xe [LENNARD_JONES] p_0/k_B: 111.24747 [K], p_1: 4.03000 [A], shift/k_B:  -0.43300946 [K], tailcorrection: no
CH2_sp3 -      F1 [LENNARD_JONES] p_0/k_B:  45.20009 [K], p_1: 3.52650 [A], shift/k_B:  -0.07903379 [K], tailcorrection: no
 CH_sp3 -  CH_sp3 [LENNARD_JONES] p_0/k_B:  17.00000 [K], p_1: 4.67000 [A], shift/k_B:  -0.16000180 [K], tailcorrection: no
 CH_sp3 -   C_sp3 [LENNARD_JONES] p_0/k_B:   3.68782 [K], p_1: 5.52500 [A], shift/k_B:  -0.09478627 [K], tailcorrection: no
 CH_sp3 -   C_co2 [LENNARD_JONES] p_0/k_B:  21.42429 [K], p_1: 3.73500 [A], shift/k_B:  -0.05286667 [K], tailcorrection: no
 CH_sp3 -   O_co2 [LENNARD_JONES] p_0/k_B:  36.64696 [K], p_1: 3.86000 [A], shift/k_B:  -0.11016287 [K], tailcorrection: no
 CH_sp3 -    N_n2 [LENNARD_JONES] p_0/k_B:  24.73863 [K], p_1: 3.99000 [A], shift/k_B:  -0.09070153 [K], tailcorrection: no
 CH_sp3 -    H_h2 [LENNARD_JONES] p_0/k_B:  11.40320 [K], p_1: 3.75800 [A], shift/k_B:  -0.02919372 [K], tailcorrection: no
 CH_sp3 -   H_com [LENNARD_JONES] p_0/k_B:  24.97799 [K], p_1: 3.81400 [A], shift/k_B:  -0.06987756 [K], tailcorrection: no
 CH_sp3 -      Ar [LENNARD_JONES] p_0/k_B:  45.12870 [K], p_1: 4.03500 [A], shift/k_B:  -0.17696521 [K], tailcorrection: no
 CH_sp3 -      Kr [LENNARD_JONES] p_0/k_B:  53.18646 [K], p_1: 4.15300 [A], shift/k_B:  -0.24789396 [K], tailcorrection: no
 CH_sp3 -      Xe [LENNARD_JONES] p_0/k_B:  61.29437 [K], p_1: 4.38500 [A], shift/k_B:  -0.39567242 [K], tailcorrection: no
 CH_sp3 -      F1 [LENNARD_JONES] p_0/k_B:  24.90404 [K], p_1: 3.88150 [A], shift/k_B:  -0.07739798 [K], tailcorrection: no
  C_sp3 -   C_sp3 [LENNARD_JONES] p_0/k_B:   0.80000 [K], p_1: 6.38000 [A], shift/k_B:  -0.04831734 [K], tailcorrection: no
  C_sp3 -   C_co2 [LENNARD_JONES] p_0/k_B:   4.64758 [K], p_1: 4.59000 [A], shift/k_B:  -0.03944380 [K], tailcorrection: no
  C_sp3 -   O_co2 [LENNARD_JONES] p_0/k_B:   7.94984 [K], p_1: 4.71500 [A], shift/k_B:  -0.07924330 [K], tailcorrection: no
  C_sp3 -    N_n2 [LENNARD_JONES] p_0/k_B:   5.36656 [K], p_1: 4.84500 [A], shift/k_B:  -0.06294771 [K], tailcorrection: no
  C_sp3 -    H_h2 [LENNARD_JONES] p_0/k_B:   2.47370 [K], p_1: 4.61300 [A], shift/k_B:  -0.02163195 [K], tailcorrection: no
  C_sp3 -   H_com [LENNARD_JONES] p_0/k_B:   5.41849 [K], p_1: 4.66900 [A], shift/k_B:  -0.05093277 [K], tailcorrection: no
  C_sp3 -      Ar [LENNARD_JONES] p_0/k_B:   9.78979 [K], p_1: 4.89000 [A], shift/k_B:  -0.12135970 [K], tailcorrection: no
  C_sp3 -      Kr [LENNARD_JONES] p_0/k_B:  11.53776 [K], p_1: 5.00800 [A], shift/k_B:  -0.16494804 [K], tailcorrection: no
  C_sp3 -      Xe [LENNARD_JONES] p_0/k_B:  13.29662 [K], p_1: 5.24000 [A], shift/k_B:  -0.24916099 [K], tailcorrection: no
  C_sp3 -      F1 [LENNARD_JONES] p_0/k_B:   5.40244 [K], p_1: 4.73650 [A], shift/k_B:  -0.05533747 [K], tailcorrection: no
  C_co2 -   C_co2 [LENNARD_JONES] p_0/k_B:  27.00000 [K], p_1: 2.80000 [A], shift/k_B:  -0.01183217 [K], tailcorrection: no
  C_co2 -   O_co2 [LENNARD_JONES] p_0/k_B:  46.18441 [K], p_1: 2.92500 [A], shift/k_B:  -0.02630201 [K], tailcorrection: no
  C_co2 -    N_n2 [LENNARD_JONES] p_0/k_B:  31.17691 [K], p_1: 3.05500 [A], shift/k_B:  -0.02304731 [K], tailcorrection: no
  C_co2 -    H_h2 [LENNARD_JONES] p_0/k_B:  14.37091 [K], p_1: 2.82300 [A], shift/k_B:  -0.00661454 [K], tailcorrection: no
  C_co2 -   H_com [LENNARD_JONES] p_0/k_B:  31.47856 [K], p_1: 2.87900 [A], shift/k_B:  -0.01630080 [K], tailcorrection: no
  C_co2 -      Ar [LENNARD_JONES] p_0/k_B:  56.87354 [K], p_1: 3.10000 [A], shift/k_B:  -0.04589792 [K], tailcorrection: no
  C_co2 -      Kr [LENNARD_JONES] p_0/k_B:  67.02835 [K], p_1: 3.21800 [A], shift/k_B:  -0.06768077 [K], tailcorrection: no
  C_co2 -      Xe [LENNARD_JONES] p_0/k_B:  77.24636 [K], p_1: 3.45000 [A], shift/k_B:  -0.11842032 [K], tailcorrection: no
  C_co2 -      F1 [LENNARD_JONES] p_0/k_B:  31.38536 [K], p_1: 2.94650 [A], shift/k_B:  -0.01867675 [K], tailcorrection: no
  O_co2 -   O_co2 [LENNARD_JONES] p_0/k_B:  79.00000 [K], p_1: 3.05000 [A], shift/k_B:  -0.05782915 [K], tailcorrection: no
  O_co2 -    N_n2 [LENNARD_JONES] p_0/k_B:  53.32917 [K], p_1: 3.18000 [A], shift/k_B:  -0.05014476 [K], tailcorrection: no
  O_co2 -    H_h2 [LENNARD_JONES] p_0/k_B:  24.58192 [K], p_1: 2.94800 [A], shift/k_B:  -0.01467290 [K], tailcorrection: no
  O_co2 -   H_com [LENNARD_JONES] p_0/k_B:  53.84515 [K], p_1: 3.00400 [A], shift/k_B:  -0.03598104 [K], tailcorrection: no
  O_co2 -      Ar [LENNARD_JONES] p_0/k_B:  97.28412 [K], p_1: 3.22500 [A], shift/k_B:  -0.09951976 [K], tailcorrection: no
  O_co2 -      Kr [LENNARD_JONES] p_0/k_B: 114.65426 [K], p_1: 3.34300 [A], shift/k_B:  -0.14550261 [K], tailcorrection: no
  O_co2 -      Xe [LENNARD_JONES] p_0/k_B: 132.13251 [K], p_1: 3.57500 [A], shift/k_B:  -0.25076097 [K], tailcorrection: no
  O_co2 -      F1 [LENNARD_JONES] p_0/k_B:  53.68572 [K], p_1: 3.07150 [A], shift/k_B:  -0.04099012 [K], tailcorrection: no
   N_n2 -    N_n2 [LENNARD_JONES] p_0/k_B:  36.00000 [K], p_1: 3.31000 [A], shift/k_B:  -0.04304679 [K], tailcorrection: no
   N_n2 -    H_h2 [LENNARD_JONES] p_0/k_B:  16.59410 [K], p_1: 3.07800 [A], shift/k_B:  -0.01283162 [K], tailcorrection: no
   N_n2 -   H_com [LENNARD_JONES] p_0/k_B:  36.34831 [K], p_1: 3.13400 [A], shift/k_B:  -0.03131734 [K], tailcorrection: no
   N_n2 -      Ar [LENNARD_JONES] p_0/k_B:  65.67191 [K], p_1: 3.35500 [A], shift/k_B:  -0.08515186 [K], tailcorrection: no
   N_n2 -      Kr [LENNARD_JONES] p_0/k_B:  77.39767 [K], p_1: 3.47300 [A], shift/k_B:  -0.12347626 [K], tailcorrection: no
   N_n2 -      Xe [LENNARD_JONES] p_0/k_B:  89.19641 [K], p_1: 3.70500 [A], shift/k_B:  -0.20971106 [K], tailcorrection: no
   N_n2 -      F1 [LENNARD_JONES] p_0/k_B:  36.24070 [K], p_1: 3.20150 [A], shift/k_B:  -0.03548227 [K], tailcorrection: no
   H_h2 -    H_h2 [LENNARD_JONES] p_0/k_B:   7.64900 [K], p_1: 2.84600 [A], shift/k_B:  -0.00369625 [K], tailcorrection: no
   H_h2 -   H_com [LENNARD_JONES] p_0/k_B:  16.75465 [K], p_1: 2.90200 [A], shift/k_B:  -0.00910041 [K], tailcorrection: no
   H_h2 -      Ar [LENNARD_JONES] p_0/k_B:  30.27128 [K], p_1: 3.12300 [A], shift/k_B:  -0.02553708 [K], tailcorrection: no
   H_h2 -      Kr [LENNARD_JONES] p_0/k_B:  35.67623 [K], p_1: 3.24100 [A], shift/k_B:  -0.03759576 [K], tailcorrection: no
   H_h2 -      Xe [LENNARD_JONES] p_0/k_B:  41.11483 [K], p_1: 3.47300 [A], shift/k_B:  -0.06559248 [K], tailcorrection: no
   H_h2 -      F1 [LENNARD_JONES] p_0/k_B:  16.70504 [K], p_1: 2.96950 [A], shift/k_B:  -0.01041550 [K], tailcorrection: no
  H_com -   H_com [LENNARD_JONES] p_0/k_B:  36.70000 [K], p_1: 2.95800 [A], shift/k_B:  -0.02235574 [K], tailcorrection: no
  H_com -      Ar [LENNARD_JONES] p_0/k_B:  66.30731 [K], p_1: 3.17900 [A], shift/k_B:  -0.06223044 [K], tailcorrection: no
  H_com -      Kr [LENNARD_JONES] p_0/k_B:  78.14653 [K], p_1: 3.29700 [A], shift/k_B:  -0.09126341 [K], tailcorrection: no
  H_com -      Xe [LENNARD_JONES] p_0/k_B:  90.05942 [K], p_1: 3.52900 [A], shift/k_B:  -0.15814247 [K], tailcorrection: no
  H_com -      F1 [LENNARD_JONES] p_0/k_B:  36.59134 [K], p_1: 3.02550 [A], shift/k_B:  -0.02552029 [K], tailcorrection: no
     Ar -      Ar [LENNARD_JONES] p_0/k_B: 119.80000 [K], p_1: 3.40000 [A], shift/k_B:  -0.16825885 [K], tailcorrection: no
     Ar -      Kr [LENNARD_JONES] p_0/k_B: 141.19037 [K], p_1: 3.51800 [A], shift/k_B:  -0.24332852 [K], tailcorrection: no
     Ar -      Xe [LENNARD_JONES] p_0/k_B: 162.71386 [K], p_1: 3.75000 [A], shift/k_B:  -0.41128004 [K], tailcorrection: no
     Ar -      F1 [LENNARD_JONES] p_0/k_B:  66.11099 [K], p_1: 3.24650 [A], shift/k_B:  -0.07038023 [K], tailcorrection: no
     Kr -      Kr [LENNARD_JONES] p_0/k_B: 166.40000 [K], p_1: 3.63600 [A], shift/k_B:  -0.34951716 [K], tailcorrection: no
     Kr -      Xe [LENNARD_JONES] p_0/k_B: 191.76652 [K], p_1: 3.86800 [A], shift/k_B:  -0.58366134 [K], tailcorrection: no
     Kr -      F1 [LENNARD_JONES] p_0/k_B:  77.91515 [K], p_1: 3.36450 [A], shift/k_B:  -0.10275478 [K], tailcorrection: no
     Xe -      Xe [LENNARD_JONES] p_0/k_B: 221.00000 [K], p_1: 4.10000 [A], shift/k_B:  -0.95373182 [K], tailcorrection: no
     Xe -      F1 [LENNARD_JONES] p_0/k_B:  89.79278 [K], p_1: 3.59650 [A], shift/k_B:  -0.17664779 [K], tailcorrection: no
     F1 -      F1 [LENNARD_JONES] p_0/k_B:  36.48300 [K], p_1: 3.09300 [A], shift/k_B:  -0.02904583 [K], tailcorrection: no


MoleculeDefinitions:
===========================================================================
Component 0 [N2] (Adsorbate molecule)

	MoleculeDefinitions: TraPPE
	Component contains (at least some) atoms which are charged
	Component contains no atoms with point dipoles (polarization)
	Component has a net charge of 0.000000

	Ideal chain Rosenbluth weight: 1
	Ideal chain total energy: 0.000000

	Critical temparure [K]: 126.192000
	Critical pressure [Pa]: 3395800.000000
	Acentric factor [-]: 0.037200

	RXMC partition factor ln(q/V) [ln(A^(-3))]:       0.0000000000

	Vapour=stable, Liquid=metastable

	MolFraction:           1.0000000000 [-]
	Compressibility:       0.0000000000 [-]

	Density of the bulk fluid phase:       0.0000000000 [kg/m^3]


	Amount of excess molecules:       0.0000000000 [-]

	Conversion factor molecules/unit cell -> mol/kg:       0.0242984422 [-]
	Conversion factor molecules/unit cell -> mg/g:       0.6806839238 [-]
	Conversion factor molecules/unit cell -> cm^3 STP/gr:       0.5446246935 [-]
	Conversion factor molecules/unit cell -> cm^3 STP/cm^3:       0.3841880220 [-]
	Conversion factor mol/kg -> cm^3 STP/gr:      22.4139757476 [-]
	Conversion factor mol/kg -> cm^3 STP/cm^3:      15.8112202950 [-]

	Partial pressure: -16605402.00000000000000 [Pa]
	                    -124540.51499999999942 [Torr]
	                       -166.05402000000001 [bar]
	                       -163.88257586972614 [atm]

	Fugacity coefficient:      -1.0000000000 [-]

	Partial fugacity:  16605402.00000000000000 [Pa]
	                     124540.51499999999942 [Torr]
	                        166.05402000000001 [bar]
	                        163.88257586972614 [atm]

	Molecule contains 3 number of atoms
		atom:    0  is of type:   19 [      N_n2] (group: 0)
		atom:    1  is of type:   20 [     N_com] (group: 0)
		atom:    2  is of type:   19 [      N_n2] (group: 0)

	Molecule contains 0 chirality centers

	Molecule contains 1 number of groups

		group: 0 containing: 3 elements
		-------------------------------------------------
		the group is rigid and linear
		Mass: 28.013480 [a.u.]
		Mass: 0.480167 [kg/m^3]

		Rotational Degrees of freedom: 2
		Diagonalized inertia vector:       8.4740777000
		                                   8.4740777000
		                                   0.0000000000
		number of atoms: 3
			element: 0 atom: 0 [      N_n2] Charge: -0.482000 Anisotropy: 0.000000 Position:  0.000000 -0.000000  0.550000 Connectivity: 1 (1 )
			element: 1 atom: 1 [     N_com] Charge:  0.964000 Anisotropy: 0.000000 Position:  0.000000 -0.000000  0.000000 Connectivity: 2 (0 2 )
			element: 2 atom: 2 [      N_n2] Charge: -0.482000 Anisotropy: 0.000000 Position:  0.000000 -0.000000 -0.550000 Connectivity: 1 (1 )
		number of permanent dipoles: 0
		number of polarizabilities: 0

		Dipole:           0.0000000000 [D]
		Quadrupole:       0.7003315673       0.7003315673      -1.4006631347 [D Angstrom]
		Quadrupole tensor [D Angstrom]
				       0.7003315673       0.0000000000       0.0000000000
				       0.0000000000       0.7003315673       0.0000000000
				       0.0000000000       0.0000000000      -1.4006631347

	Starting bead for growth               : 0

	Degrees of freedom                     : 0
	Translational degrees of freedom       : 0
	Rotational degrees of freedom          : 0
	Vibrational degrees of freedom         : 0
	Constraint degrees of freedom          : 0

	Number of atoms                        : 3

	Number of constraint bonds             : 0
	Number of constraint bends             : 0
	Number of constraint inversion bends   : 0
	Number of constraint torsions          : 0
	Number of constraint improper torsions : 0
	Number of constraint improper torsions : 0

	Number of bonds                        : 2
	Number of Urey-Bradleys                : 0
	Number of bends                        : 0
	Number of inversion bends              : 0
	Number of torsions                     : 0
	Number of improper torsions            : 0
	Number of improper torsions            : 0

	Number of bond/bond cross terms        : 0
	Number of bond/bend cross terms        : 0
	Number of bend/bend cross terms        : 0
	Number of stretch/torsion cross terms  : 0
	Number of bend/torsion cross terms     : 0

	Number of charges                      : 3
	Number of bond-dipoles                 : 0

	Number of intra Van der Waals                             : 0
	Number of intra charge-charge Coulomb                     : 0
	Number of intra charge-bonddipole Coulomb                 : 0
	Number of intra bonddipole-bonddipole Coulomb             : 0

	Number of excluded intra charge-charge Coulomb                     : 3
	Number of excluded intra charge-bonddipole Coulomb                 : 0
	Number of excluded intra bonddipole-bonddipole Coulomb             : 0

	Number of cbmc-config moves                               : 0

	Particle Moves:             
		ProbabilityTranslationMove:                  0.000000
			TranslationDirection:      XYZ
		Percentage of random translation moves:            0.000000
		Percentage of rotation moves:                      0.000000
		Percentage of random rotation moves:               0.000000
		Percentage of partial reinsertion moves:           0.000000
		Percentage of reinsertion moves:                   0.000000
		Percentage of reinsertion-in-place moves:          0.000000
		Percentage of reinsertion-in-plane moves:          0.000000
		Percentage of identity-change moves:               0.000000
		Percentage of swap (insert/delete) moves:          0.000000
		Percentage of CF swap lambda moves:                0.000000
		Percentage of CB/CFMC swap lambda moves:           0.000000
		Percentage of Widom insertion moves:               0.000000
		Percentage of CF-Widom insertion moves:            0.000000
		Percentage of Gibbs Widom insertion moves:         0.000000
		Percentage of surface-area moves:                  100.000000
		Percentage of Gibbs particle-transfer moves:       0.000000
		Percentage of Gibbs identity-change moves:         0.000000
		Percentage of CF Gibbs lambda-transfer moves:      0.000000
		Percentage of CB/CFMC Gibbs lambda-transfer moves: 0.000000
		Percentage of exchange frac./int. particle moves:  0.000000
		Percentage of fractional mol. to other box moves:  0.000000
		Percentage of lambda-change moves:                 0.000000
		Percentage of fractional to integer moves:         0.000000

	System Moves:
		Percentage of parallel-tempering moves:            0.000000
		Percentage of hyper-parallel-tempering moves:      0.000000
		Percentage of parallel-mol-fraction moves:         0.000000
			   Component A: 0 B: 1
		Percentage of chiral inversion moves:              0.000000
		Percentage of Hybrid-NVE moves:                    0.000000
		Percentage of Hybrid-NPH moves:                    0.000000
		Percentage of Hybrid-NPHPR moves:                  0.000000
		Percentage of volume-change moves:                 0.000000
		Percentage of box-shape-change moves:              0.000000
		Percentage of Gibbs volume-change moves:           0.000000
		Percentage of framework-change moves:              0.000000
		Percentage of framework-shift moves:               0.000000
		Percentage of reactive MC moves:                   0.000000

	Moves are restricted: No
	No biased sampling used for this component

	Number of Bonds: 2
	--------------------------------------------
	Bond interaction 0: A=0 B=1 Type:RIGID_BOND
		r_0=0.5500000000       [A]
	Bond interaction 1: A=1 B=2 Type:RIGID_BOND
		r_0=0.5500000000       [A]


	number of identity-config changes: 1
	--------------------------------------------
	nr fixed 1: 0 

	Number of pockets blocked in a unitcell: 0
		Pockets are NOT blocked for this component



Framework Status
===========================================================================
Lowenstein's rule obeyed by framework
	Framework is modelled as: rigid

	Number of charges:                               2720
	Number of bonddipoles:                           0


System Properties
===========================================================================
Unit cell size: 51.552100 51.552100 51.552100
Cell angles (radians)  alpha: 1.047198 beta: 1.047198 gamma: 1.047198
Cell angles (degrees)  alpha: 60.000000 beta: 60.000000 gamma: 60.000000
Number of unitcells [a]: 1
Number of unitcells [b]: 1
Number of unitcells [c]: 1

TRICLINIC Boundary conditions: alpha!=90 or beta!=90 or gamma!=90

Cartesian axis A is collinear with crystallographic axis a
Cartesian axis B is collinear with (axb)xA
Cartesian axis C is collinear with (axb)

lengths of cell vectors:
 51.55210  51.55210  51.55210
cosines of cell angles:
  0.50000   0.50000   0.50000
perpendicular cell widths:
 42.09211  42.09211  42.09211
volume of the cell: 96877.759369571897 (A^3)

Orthogonalization matrix Box
Transforms fractional coordinates abc into orthonormal Cartesian coordinates xyz
Deorthogonalization matrix InverseBox
Transforms orthonormal Cartesian coordinates xyz into fractional coordinates xyz

Box[0]:
	   51.552100000000    25.776050000000    25.776050000000
	    0.000000000000    44.645428218436    14.881809406145
	    0.000000000000     0.000000000000    42.092113389644

Inverse box[0]:
	    0.019397851882    -0.011199355006    -0.007919139869
	    0.000000000000     0.022398710011    -0.007919139869
	    0.000000000000     0.000000000000     0.023757419608


Unitcell box[0]:
	   51.552100000000    25.776050000000    25.776050000000
	    0.000000000000    44.645428218436    14.881809406145
	    0.000000000000     0.000000000000    42.092113389644

Unitcell inverse box[0]:
	    0.019397851882    -0.011199355006    -0.007919139869
	    0.000000000000     0.022398710011    -0.007919139869
	    0.000000000000     0.000000000000     0.023757419608

lengths of cell vectors (inverse box):
  0.01940   0.02504   0.02626
cosines of cell angles (inverse box):
 -0.13484  -0.30151  -0.44721
perpendicular cell widths (inverse):
  0.01584   0.02125   0.02376
volume of the cell: 96877.759369571897 (A^3)

No replicas are used
Framework is simulated as 'rigid'
Number of framework atoms: 2788
Number of framework atoms in the unit cell: 2788
Framework Mass: 41154.901738959663 [g/mol]
Framework Density:   705.417926431947 [kg/m^3]    1.4175993585222 [cm^3/g]
Helium void fraction:    0.00000000
Available pore volume:    0.00000000 [A^3]    0.00000000 [cm^3/g]
Conversion factor from molecule/unit cell -> kmol/m^3: 0.0171406, kmol/m^3 accesible pore volume: inf

Number Of Frameworks (per system): 1
----------------------------------------------------------------------
Framework name: MIL-100-primitive
Space group: 1
	Identifier: 1
	short international Hermann-Mauguin symbol: P 1
	long international Hermann-Mauguin symbol: P 1
	Hall symbol: P 1
	Number of lattice translations: 1 [ (0,0,0) ]
	acentric/centric: acentric
	chiral: no
	enantiomorphic: no
	number of operators: 1
		'x,y,z'
Framework is simulated as 'rigid'
Shift: 0.000000 0.000000 0.000000
Number of framework atoms: 2788
Number of asymmetric atoms: 2788
Number of free framework atoms: 0
Number of fixed framework atoms: 2788
Number of framework atoms in the unit cell: 2788
Framework Mass: 41154.901738959663 [g/mol]
Framework Density:   705.417926431947 [kg/m^3]
Framework has net charge: 38.488000
         largest charge : 1.859000
         smallest charge: -1.280000

Using FULL Host-guest interaction calculation (for testing purposes)

Current Atom Status
===========================================================================
Number of framework atoms        : 2788
Number of cations molecules      : 0
Number of adsorbate molecules    : 0
Component    0 :    0 molecules
Pseudo Atoms    0 [    UNIT]:    0 atoms
Pseudo Atoms    1 [      He]:    0 atoms
Pseudo Atoms    2 [     Cr1]:  136 atoms
Pseudo Atoms    3 [     Cr2]:   68 atoms
Pseudo Atoms    4 [      O1]:   68 atoms
Pseudo Atoms    5 [      O2]:  544 atoms
Pseudo Atoms    6 [      O3]:  272 atoms
Pseudo Atoms    7 [      C1]:  408 atoms
Pseudo Atoms    8 [      C2]:  408 atoms
Pseudo Atoms    9 [      C3]:  408 atoms
Pseudo Atoms   10 [      H1]:  408 atoms
Pseudo Atoms   11 [      F2]:    0 atoms
Pseudo Atoms   12 [ CH4_sp3]:    0 atoms
Pseudo Atoms   13 [ CH3_sp3]:    0 atoms
Pseudo Atoms   14 [ CH2_sp3]:    0 atoms
Pseudo Atoms   15 [  CH_sp3]:    0 atoms
Pseudo Atoms   16 [   C_sp3]:    0 atoms
Pseudo Atoms   17 [   C_co2]:    0 atoms
Pseudo Atoms   18 [   O_co2]:    0 atoms
Pseudo Atoms   19 [    N_n2]:    0 atoms
Pseudo Atoms   20 [   N_com]:    0 atoms
Pseudo Atoms   21 [    H_h2]:    0 atoms
Pseudo Atoms   22 [   H_com]:    0 atoms
Pseudo Atoms   23 [      Ar]:    0 atoms
Pseudo Atoms   24 [      Kr]:    0 atoms
Pseudo Atoms   25 [      Xe]:    0 atoms
Pseudo Atoms   26 [      F1]:   68 atoms


Current (initial full energy) Energy Status
===========================================================================

Internal energy:
Host stretch energy:                                            0.00000000
Host UreyBradley energy:                                        0.00000000
Host bend energy:                                               0.00000000
Host inversion-bend energy:                                     0.00000000
Host torsion energy:                                            0.00000000
Host improper torsion energy:                                   0.00000000
Host out-of-plane energy:                                       0.00000000
Host stretch/stretch energy:                                    0.00000000
Host bend/bend energy:                                          0.00000000
Host stretch/bend energy:                                       0.00000000
Host stretch/torsion energy:                                    0.00000000
Host bend/torsion energy:                                       0.00000000

Adsorbate stretch energy:                                       0.00000000
Adsorbate UreyBradley energy:                                   0.00000000
Adsorbate bend energy:                                          0.00000000
Adsorbate inversion-bend energy:                                0.00000000
Adsorbate torsion energy:                                       0.00000000
Adsorbate improper torsion energy:                              0.00000000
Adsorbate out-of-plane energy:                                  0.00000000
Adsorbate stretch/stretch energy:                               0.00000000
Adsorbate bend/bend energy:                                     0.00000000
Adsorbate stretch/bend energy:                                  0.00000000
Adsorbate stretch/torsion energy:                               0.00000000
Adsorbate bend/torsion energy:                                  0.00000000
Adsorbate intra VDW energy:                                     0.00000000
Adsorbate intra charge-charge Coulomb energy:                   0.00000000
Adsorbate intra charge-bonddipole Coulomb energy:               0.00000000
Adsorbate intra bonddipole-bonddipole Coulomb energy:           0.00000000

Cation stretch energy:                                          0.00000000
Cation UreyBradley energy:                                      0.00000000
Cation bend energy:                                             0.00000000
Cation inversion-bend energy:                                   0.00000000
Cation torsion energy:                                          0.00000000
Cation improper torsion energy:                                 0.00000000
Cation out-of-plane energy:                                     0.00000000
Cation stretch/stretch energy:                                  0.00000000
Cation bend/bend energy:                                        0.00000000
Cation stretch/bend energy:                                     0.00000000
Cation stretch/torsion energy:                                  0.00000000
Cation bend/torsion energy:                                     0.00000000
Cation intra VDW energy:                                        0.00000000
Cation intra charge-charge Coulomb energy:                      0.00000000
Cation intra charge-bonddipole Coulomb energy:                  0.00000000
Cation intra bonddipole-bonddipole Coulomb energy:              0.00000000

Host/Host energy:                                             0.00000000
	Host/Host VDW energy:                                         0.00000000
	Host/Host Coulomb energy:                                     0.00000000
	Host/Host charge-charge Real energy:                          0.00000000
	Host/Host charge-charge Fourier energy:                       0.00000000
	Host/Host charge-bonddipole Real energy:                      0.00000000
	Host/Host charge-bonddipole Fourier energy:                   0.00000000
	Host/Host bondipole-bonddipole Real energy:                   0.00000000
	Host/Host bondipole-bonddipole Fourier energy:                0.00000000

Host/Adsorbate energy:                                        0.00000000
	Host/Adsorbate VDW energy:                                    0.00000000
	Host/Adsorbate Coulomb energy:                                0.00000000
	Host/Adsorbate charge-charge Real energy:                     0.00000000
	Host/Adsorbate charge-charge Fourier energy:                  0.00000000
	Host/Adsorbate charge-bonddipole Real energy:                 0.00000000
	Host/Adsorbate charge-bonddipole Fourier energy:              0.00000000
	Host/Adsorbate bondipole-bonddipole Real energy:              0.00000000
	Host/Adsorbate bondipole-bonddipole Fourier energy:           0.00000000

Host/Cation energy:                                           0.00000000
	Host/Cation VDW energy:                                       0.00000000
	Host/Cation Coulomb energy:                                   0.00000000
	Host/Cation charge-charge Real energy:                        0.00000000
	Host/Cation charge-charge Fourier energy:                     0.00000000
	Host/Cation charge-bonddipole Real energy:                    0.00000000
	Host/Cation charge-bonddipole Fourier energy:                 0.00000000
	Host/Cation bondipole-bonddipole Real energy:                 0.00000000
	Host/Cation bondipole-bonddipole Fourier energy:              0.00000000

Adsorbate/Adsorbate energy:                                        0.00000000
	Adsorbate/Adsorbate VDW energy:                                    0.00000000
	Adsorbate/Adsorbate Coulomb energy:                                0.00000000
	Adsorbate/Adsorbate charge-charge Real energy:                     0.00000000
	Adsorbate/Adsorbate charge-charge Fourier energy:                  0.00000000
	Adsorbate/Adsorbate charge-bonddipole Real energy:                 0.00000000
[...]
	Block[ 2]            0.00000 [K]
	Block[ 3]            0.00000 [K]
	Block[ 4]            0.00000 [K]
	------------------------------------------------------------------------------
	Average              0.00000 [K] +/-            0.00000 [K]

Average Cation Bend angle inversion energy:
===========================================
	Block[ 0]            0.00000 [K]
	Block[ 1]            0.00000 [K]
	Block[ 2]            0.00000 [K]
	Block[ 3]            0.00000 [K]
	Block[ 4]            0.00000 [K]
	------------------------------------------------------------------------------
	Average              0.00000 [K] +/-            0.00000 [K]

Average Cation Torsion energy:
==============================
	Block[ 0]            0.00000 [K]
	Block[ 1]            0.00000 [K]
	Block[ 2]            0.00000 [K]
	Block[ 3]            0.00000 [K]
	Block[ 4]            0.00000 [K]
	------------------------------------------------------------------------------
	Average              0.00000 [K] +/-            0.00000 [K]

Average Cation Improper Torsion energy:
=======================================
	Block[ 0]            0.00000 [K]
	Block[ 1]            0.00000 [K]
	Block[ 2]            0.00000 [K]
	Block[ 3]            0.00000 [K]
	Block[ 4]            0.00000 [K]
	------------------------------------------------------------------------------
	Average              0.00000 [K] +/-            0.00000 [K]

Average Cation Bond-Bond cross term energy:
=================================================
	Block[ 0]            0.00000 [K]
	Block[ 1]            0.00000 [K]
	Block[ 2]            0.00000 [K]
	Block[ 3]            0.00000 [K]
	Block[ 4]            0.00000 [K]
	------------------------------------------------------------------------------
	Average              0.00000 [K] +/-            0.00000 [K]

Average Cation Bend-Bend cross term energy:
===========================================
	Block[ 0]            0.00000 [K]
	Block[ 1]            0.00000 [K]
	Block[ 2]            0.00000 [K]
	Block[ 3]            0.00000 [K]
	Block[ 4]            0.00000 [K]
	------------------------------------------------------------------------------
	Average              0.00000 [K] +/-            0.00000 [K]

Average Cation Bond-Bend cross term energy:
==============================================
	Block[ 0]            0.00000 [K]
	Block[ 1]            0.00000 [K]
	Block[ 2]            0.00000 [K]
	Block[ 3]            0.00000 [K]
	Block[ 4]            0.00000 [K]
	------------------------------------------------------------------------------
	Average              0.00000 [K] +/-            0.00000 [K]

Average Cation Bond-Torsion cross term energy:
==============================================
	Block[ 0]            0.00000 [K]
	Block[ 1]            0.00000 [K]
	Block[ 2]            0.00000 [K]
	Block[ 3]            0.00000 [K]
	Block[ 4]            0.00000 [K]
	------------------------------------------------------------------------------
	Average              0.00000 [K] +/-            0.00000 [K]

Average Cation Bend-Torsion cross term energy:
==============================================
	Block[ 0]            0.00000 [K]
	Block[ 1]            0.00000 [K]
	Block[ 2]            0.00000 [K]
	Block[ 3]            0.00000 [K]
	Block[ 4]            0.00000 [K]
	------------------------------------------------------------------------------
	Average              0.00000 [K] +/-            0.00000 [K]

Average Cation Intra Van der Waals energy:
==========================================
	Block[ 0]            0.00000 [K]
	Block[ 1]            0.00000 [K]
	Block[ 2]            0.00000 [K]
	Block[ 3]            0.00000 [K]
	Block[ 4]            0.00000 [K]
	------------------------------------------------------------------------------
	Average              0.00000 [K] +/-            0.00000 [K]

Average Cation Intra charge-charge Coulomb energy:
====================================
	Block[ 0]            0.00000 [K]
	Block[ 1]            0.00000 [K]
	Block[ 2]            0.00000 [K]
	Block[ 3]            0.00000 [K]
	Block[ 4]            0.00000 [K]
	------------------------------------------------------------------------------
	Average              0.00000 [K] +/-            0.00000 [K]

Average Cation Intra charge-bonddipole Coulomb energy:
====================================
	Block[ 0]            0.00000 [K]
	Block[ 1]            0.00000 [K]
	Block[ 2]            0.00000 [K]
	Block[ 3]            0.00000 [K]
	Block[ 4]            0.00000 [K]
	------------------------------------------------------------------------------
	Average              0.00000 [K] +/-            0.00000 [K]

Average Cation Intra bonddipole-bonddipole Coulomb energy:
====================================
	Block[ 0]            0.00000 [K]
	Block[ 1]            0.00000 [K]
	Block[ 2]            0.00000 [K]
	Block[ 3]            0.00000 [K]
	Block[ 4]            0.00000 [K]
	------------------------------------------------------------------------------
	Average              0.00000 [K] +/-            0.00000 [K]

Average Host-Host energy:
=========================
	Block[ 0] 0.00000            Van der Waals: 0.00000            Coulomb: 0.00000            [K]
	Block[ 1] 0.00000            Van der Waals: 0.00000            Coulomb: 0.00000            [K]
	Block[ 2] 0.00000            Van der Waals: 0.00000            Coulomb: 0.00000            [K]
	Block[ 3] 0.00000            Van der Waals: 0.00000            Coulomb: 0.00000            [K]
	Block[ 4] 0.00000            Van der Waals: 0.00000            Coulomb: 0.00000            [K]
	------------------------------------------------------------------------------
	Average   0.00000            Van der Waals: 0.000000           Coulomb: 0.00000            [K]
	      +/- 0.00000                       +/- 0.000000                +/- 0.00000            [K]

Average Adsorbate-Adsorbate energy:
===================================
	Block[ 0] 0.00000            Van der Waals: 0.00000            Coulomb: 0.00000            [K]
	Block[ 1] 0.00000            Van der Waals: 0.00000            Coulomb: 0.00000            [K]
	Block[ 2] 0.00000            Van der Waals: 0.00000            Coulomb: 0.00000            [K]
	Block[ 3] 0.00000            Van der Waals: 0.00000            Coulomb: 0.00000            [K]
	Block[ 4] 0.00000            Van der Waals: 0.00000            Coulomb: 0.00000            [K]
	------------------------------------------------------------------------------
	Average   0.00000            Van der Waals: 0.000000           Coulomb: 0.00000            [K]
	      +/- 0.00000                       +/- 0.000000                +/- 0.00000            [K]

Average Cation-Cation energy:
=============================
	Block[ 0] 0.00000            Van der Waals: 0.00000            Coulomb: 0.00000            [K]
	Block[ 1] 0.00000            Van der Waals: 0.00000            Coulomb: 0.00000            [K]
	Block[ 2] 0.00000            Van der Waals: 0.00000            Coulomb: 0.00000            [K]
	Block[ 3] 0.00000            Van der Waals: 0.00000            Coulomb: 0.00000            [K]
	Block[ 4] 0.00000            Van der Waals: 0.00000            Coulomb: 0.00000            [K]
	------------------------------------------------------------------------------
	Average   0.00000            Van der Waals: 0.000000           Coulomb: 0.00000            [K]
	      +/- 0.00000                       +/- 0.000000                +/- 0.00000            [K]

Average Host-Adsorbate energy:
==============================
	Block[ 0] 0.00000            Van der Waals: 0.00000            Coulomb: 0.00000            [K]
	Block[ 1] 0.00000            Van der Waals: 0.00000            Coulomb: 0.00000            [K]
	Block[ 2] 0.00000            Van der Waals: 0.00000            Coulomb: 0.00000            [K]
	Block[ 3] 0.00000            Van der Waals: 0.00000            Coulomb: 0.00000            [K]
	Block[ 4] 0.00000            Van der Waals: 0.00000            Coulomb: 0.00000            [K]
	------------------------------------------------------------------------------
	Average   0.00000            Van der Waals: 0.000000           Coulomb: 0.00000            [K]
	      +/- 0.00000                       +/- 0.000000                +/- 0.00000            [K]

Average Host-Cation energy:
===========================
	Block[ 0] 0.00000            Van der Waals: 0.00000            Coulomb: 0.00000            [K]
	Block[ 1] 0.00000            Van der Waals: 0.00000            Coulomb: 0.00000            [K]
	Block[ 2] 0.00000            Van der Waals: 0.00000            Coulomb: 0.00000            [K]
	Block[ 3] 0.00000            Van der Waals: 0.00000            Coulomb: 0.00000            [K]
	Block[ 4] 0.00000            Van der Waals: 0.00000            Coulomb: 0.00000            [K]
	------------------------------------------------------------------------------
	Average   0.00000            Van der Waals: 0.000000           Coulomb: 0.00000            [K]
	      +/- 0.00000                       +/- 0.000000                +/- 0.00000            [K]

Average Adsorbate-Cation energy:
================================
	Block[ 0] 0.00000            Van der Waals: 0.00000            Coulomb: 0.00000            [K]
	Block[ 1] 0.00000            Van der Waals: 0.00000            Coulomb: 0.00000            [K]
	Block[ 2] 0.00000            Van der Waals: 0.00000            Coulomb: 0.00000            [K]
	Block[ 3] 0.00000            Van der Waals: 0.00000            Coulomb: 0.00000            [K]
	Block[ 4] 0.00000            Van der Waals: 0.00000            Coulomb: 0.00000            [K]
	------------------------------------------------------------------------------
	Average   0.00000            Van der Waals: 0.000000           Coulomb: 0.00000            [K]
	      +/- 0.00000                       +/- 0.000000                +/- 0.00000            [K]

Host polarization energy:
=======================
	Block[ 0]            0.00000 [K]
	Block[ 1]            0.00000 [K]
	Block[ 2]            0.00000 [K]
	Block[ 3]            0.00000 [K]
	Block[ 4]            0.00000 [K]
	------------------------------------------------------------------------------
	Average              0.00000 [K] +/-            0.00000 [K]

Adsorbate polarization energy:
=======================
	Block[ 0]            0.00000 [K]
	Block[ 1]            0.00000 [K]
	Block[ 2]            0.00000 [K]
	Block[ 3]            0.00000 [K]
	Block[ 4]            0.00000 [K]
	------------------------------------------------------------------------------
	Average              0.00000 [K] +/-            0.00000 [K]

Cation polarization energy:
=======================
	Block[ 0]            0.00000 [K]
	Block[ 1]            0.00000 [K]
	Block[ 2]            0.00000 [K]
	Block[ 3]            0.00000 [K]
	Block[ 4]            0.00000 [K]
	------------------------------------------------------------------------------
	Average              0.00000 [K] +/-            0.00000 [K]

Host back-polarization energy:
=======================
	Block[ 0]            0.00000 [K]
	Block[ 1]            0.00000 [K]
	Block[ 2]            0.00000 [K]
	Block[ 3]            0.00000 [K]
	Block[ 4]            0.00000 [K]
	------------------------------------------------------------------------------
	Average              0.00000 [K] +/-            0.00000 [K]

Adsorbate back-polarization energy:
=======================
	Block[ 0]            0.00000 [K]
	Block[ 1]            0.00000 [K]
	Block[ 2]            0.00000 [K]
	Block[ 3]            0.00000 [K]
	Block[ 4]            0.00000 [K]
	------------------------------------------------------------------------------
	Average              0.00000 [K] +/-            0.00000 [K]

Cation back-polarization energy:
=======================
	Block[ 0]            0.00000 [K]
	Block[ 1]            0.00000 [K]
	Block[ 2]            0.00000 [K]
	Block[ 3]            0.00000 [K]
	Block[ 4]            0.00000 [K]
	------------------------------------------------------------------------------
	Average              0.00000 [K] +/-            0.00000 [K]

Tail-correction energy:
=======================
	Block[ 0]            0.00000 [K]
	Block[ 1]            0.00000 [K]
	Block[ 2]            0.00000 [K]
	Block[ 3]            0.00000 [K]
	Block[ 4]            0.00000 [K]
	------------------------------------------------------------------------------
	Average              0.00000 [K] +/-            0.00000 [K]

Distance-constraints energy:
=======================
	Block[ 0]            0.00000 [K]
	Block[ 1]            0.00000 [K]
	Block[ 2]            0.00000 [K]
	Block[ 3]            0.00000 [K]
	Block[ 4]            0.00000 [K]
	------------------------------------------------------------------------------
	Average              0.00000 [K] +/-            0.00000 [K]

Angle-constraints energy:
=======================
	Block[ 0]            0.00000 [K]
	Block[ 1]            0.00000 [K]
	Block[ 2]            0.00000 [K]
	Block[ 3]            0.00000 [K]
	Block[ 4]            0.00000 [K]
	------------------------------------------------------------------------------
	Average              0.00000 [K] +/-            0.00000 [K]

Dihedral-constraints energy:
=======================
	Block[ 0]            0.00000 [K]
	Block[ 1]            0.00000 [K]
	Block[ 2]            0.00000 [K]
	Block[ 3]            0.00000 [K]
	Block[ 4]            0.00000 [K]
	------------------------------------------------------------------------------
	Average              0.00000 [K] +/-            0.00000 [K]

Inversion-bend constraints energy:
=======================
	Block[ 0]            0.00000 [K]
	Block[ 1]            0.00000 [K]
	Block[ 2]            0.00000 [K]
	Block[ 3]            0.00000 [K]
	Block[ 4]            0.00000 [K]
	------------------------------------------------------------------------------
	Average              0.00000 [K] +/-            0.00000 [K]

Out-of-plane-distance constraints energy:
=======================
	Block[ 0]            0.00000 [K]
	Block[ 1]            0.00000 [K]
	Block[ 2]            0.00000 [K]
	Block[ 3]            0.00000 [K]
	Block[ 4]            0.00000 [K]
	------------------------------------------------------------------------------
	Average              0.00000 [K] +/-            0.00000 [K]

Exclusion-constraints energy:
=======================
	Block[ 0]            0.00000 [K]
	Block[ 1]            0.00000 [K]
	Block[ 2]            0.00000 [K]
	Block[ 3]            0.00000 [K]
	Block[ 4]            0.00000 [K]
	------------------------------------------------------------------------------
	Average              0.00000 [K] +/-            0.00000 [K]

Total energy:
=============
	Block[ 0]            0.00000 [K]
	Block[ 1]            0.00000 [K]
	Block[ 2]            0.00000 [K]
	Block[ 3]            0.00000 [K]
	Block[ 4]            0.00000 [K]
	------------------------------------------------------------------------------
	Average              0.00000 [K] +/-            0.00000 [K]

Number of molecules:
====================

Component 0 [N2]
-------------------------------------------------------------
	Block[ 0] 0.00000            [-]
	Block[ 1] 0.00000            [-]
	Block[ 2] 0.00000            [-]
	Block[ 3] 0.00000            [-]
	Block[ 4] 0.00000            [-]
	------------------------------------------------------------------------------
	Average                                      0.0000000000 +/-       0.0000000000 [-]
	Average loading absolute [molecules/unit cell]        0.0000000000 +/-       0.0000000000 [-]
	Average loading absolute [mol/kg framework]          0.0000000000 +/-       0.0000000000 [-]
	Average loading absolute [milligram/gram framework]          0.0000000000 +/-       0.0000000000 [-]
	Average loading absolute [cm^3 (STP)/gr framework]          0.0000000000 +/-       0.0000000000 [-]
	Average loading absolute [cm^3 (STP)/cm^3 framework]          0.0000000000 +/-       0.0000000000 [-]

	Block[ 0] 0.00000            [-]
	Block[ 1] 0.00000            [-]
	Block[ 2] 0.00000            [-]
	Block[ 3] 0.00000            [-]
	Block[ 4] 0.00000            [-]
	------------------------------------------------------------------------------
	Average                                      0.0000000000 +/-       0.0000000000 [-]
	Average loading excess [molecules/unit cell]        0.0000000000 +/-       0.0000000000 [-]
	Average loading excess [mol/kg framework]          0.0000000000 +/-       0.0000000000 [-]
	Average loading excess [milligram/gram framework]          0.0000000000 +/-       0.0000000000 [-]
	Average loading excess [cm^3 (STP)/gr framework]          0.0000000000 +/-       0.0000000000 [-]
	Average loading excess [cm^3 (STP)/cm^3 framework]          0.0000000000 +/-       0.0000000000 [-]


Average Widom Rosenbluth factor:
================================
	Block[ 0] 0 [-]
	Block[ 1] 0 [-]
	Block[ 2] 0 [-]
	Block[ 3] 0 [-]
	Block[ 4] 0 [-]
	------------------------------------------------------------------------------
	[N2] Average Widom Rosenbluth-weight:   0 +/- 0.000000 [-]

Average Widom chemical potential:
=================================
	Block[ 0] 0 [-]
	Block[ 1] 0 [-]
	Block[ 2] 0 [-]
	Block[ 3] 0 [-]
	Block[ 4] 0 [-]
	------------------------------------------------------------------------------
	[N2] Average chemical potential:   0 +/- 0.000000 [K]

Average Widom Ideal-gas contribution:
=====================================
	Block[ 0] 0 [-]
	Block[ 1] 0 [-]
	Block[ 2] 0 [-]
	Block[ 3] 0 [-]
	Block[ 4] 0 [-]
	------------------------------------------------------------------------------
	[N2] Average Widom Ideal-gas chemical potential:   0 +/- 0.000000 [-]

Average Widom excess contribution:
==================================
	Block[ 0] 0 [-]
	Block[ 1] 0 [-]
	Block[ 2] 0 [-]
	Block[ 3] 0 [-]
	Block[ 4] 0 [-]
	------------------------------------------------------------------------------
	[N2] Average Widom excess chemical potential:   0 +/- 0.000000 [-]

Average Gibbs Widom Rosenbluth factor:
======================================
	Block[ 0] 0 [-]
	Block[ 1] 0 [-]
	Block[ 2] 0 [-]
	Block[ 3] 0 [-]
	Block[ 4] 0 [-]
	------------------------------------------------------------------------------
	[N2] Average Gibbs Widom Rosenbluth-weight:   0 +/- 0.000000 [-]

Average Gibbs Widom chemical potential:
=======================================
	Block[ 0] 0 [-]
	Block[ 1] 0 [-]
	Block[ 2] 0 [-]
	Block[ 3] 0 [-]
	Block[ 4] 0 [-]
	------------------------------------------------------------------------------
	[N2] Average Gibbs chemical potential:   0 +/- 0.000000 [K]

Average Gibbs Widom Ideal-gas contribution:
===========================================
	Block[ 0] 0 [-]
	Block[ 1] 0 [-]
	Block[ 2] 0 [-]
	Block[ 3] 0 [-]
	Block[ 4] 0 [-]
	------------------------------------------------------------------------------
	[N2] Average Gibbs Ideal-gas chemical potential:   0 +/- 0.000000 [-]

Average Gibbs Widom excess contribution:
===========================================
	Block[ 0] 0 [-]
	Block[ 1] 0 [-]
	Block[ 2] 0 [-]
	Block[ 3] 0 [-]
	Block[ 4] 0 [-]
	------------------------------------------------------------------------------
	[N2] Average Gibbs excess chemical potential:   0 +/- 0.000000 [-]

Average Henry coefficient:
==========================
	Block[ 0] 0 [mol/kg/Pa]
	Block[ 1] 0 [mol/kg/Pa]
	Block[ 2] 0 [mol/kg/Pa]
	Block[ 3] 0 [mol/kg/Pa]
	Block[ 4] 0 [mol/kg/Pa]
	------------------------------------------------------------------------------
	[N2] Average Henry coefficient:  0 +/- 0 [mol/kg/Pa]

Average adsorption energy <U_gh>_1-<U_h>_0 obtained from Widom-insertion:
(Note: the total heat of adsorption is dH=<U_gh>_1-<U_h>_0 - <U_g> - RT)
=========================================================================

Simulation finished,  1 warnings
WARNING: THE SYSTEM HAS A NET CHARGE 


Fri Nov 26 07:30:47 2021
Simulation finished on Friday, November 26.
The end time was 07:30 AM.

