Compiler and run-time data
===========================================================================
RASPA 2.0.37
Compiled as a 64-bits application
Compiler: gcc 9.3.0
Compile Date = Feb 28 2022, Compile Time = 20:33:15

Tue May 17 05:55:32 2022
Simulation started on Tuesday, May 17.
The start time was 05:55 AM.

Hostname:    The start time was 05:55 AM.
OS type:     The start time was 05:55 AM.
OS release:  The start time was 05:55 AM.
OS version:  The start time was 05:55 AM.

Simulation
===========================================================================
Dimensions: 3
Random number seed: 1652734532
RASPA directory set to: /home/inukai/RASPA/simulations/
String appended to output-files: 
Number of cycles: 100000
Number of initializing cycles: 0
Number of equilibration cycles: 0
Print every: 1000
Triclinic boundary condition applied
Timestep: 0.000500
	Degrees of freedom:                        0
	Translational Degrees of freedom:          0
	Rotational Degrees of freedom:             0
	Degrees of freedom Framework:              0


Mutual consistent basic set of units:
======================================
Unit of temperature: Kelvin
Unit of length:      1e-10 [m]
Unit of time:        1e-12 [s]
Unit of mass:        1.66054e-27 [kg]
Unit of charge:      1.60218e-19 [C/particle]

Derived units and their conversion factors:
===========================================
Unit of energy:              1.66054e-23 [J]
Unit of force:               1.66054e-13 [N]
Unit of pressure:            1.66054e+07 [Pa]
Unit of velocity:            100 [m/s]
Unit of acceleration:        1e-08 [m^2/s]
Unit of diffusion:           1e-08 [m^2/s]
Unit of dipole moment:       1.60218e-29 [C.m]
Unit of electric potential:  0.000103643 [V]
Unit of electric field:      1.03643e+06 [V]
Unit of polarizability:      1.54587e-35 [-]
Unit of Coulomb potential:   167101.0800066561  [K]
Unit of dielectric constant: 0.0000154587       [s^2 C^2/(kg m^3)]
Unit of wave vectors:        5.3088374589       [cm^1]
Boltzmann constant:          0.8314464919       [-]

Internal conversion factors:
===========================================
Energy to Kelvin:                                    1.2027242847
FH correction factor                                 2.0211930949
Heat capacity conversion factor:                    10.0000088723
From Debye to internal units:                        4.8032067991
Isothermal compressibility conversion factor:        0.0000000602

Energy conversion factors:
===========================================
From mdyne/A to kcal/mol/A^2:           143.933
From mdyne/A to kj/mol/A^2:             602.214
From mdyne/A to K/A^2:                  72429.7
From mdyne A/rad^2 to kcal/mol/deg^2:   0.0438444


Properties computed
===========================================================================
Movies: no
Radial Distribution Function: no
Number of molecules GCMC histogram: no
Histogram of the molecule positions: no
Free energy profiles: no
Pore Size Distribution Function: no
End-to-end distance: no
Histogram of the energy of the system: no
Compute thermodynamic factors: no
Framework spacing histograms: no
Residence times histograms: no
Distance histograms: no
Bend Angle histograms: no
Dihedral angle histograms: no
Angle between planes histograms: no
Molecule properties: no
Infra-red spectra: no
Mean-squared displacement using modified order-N algorithm: no
Velocity-autocorrelation function modified order-N algorithm: no
Rotational velocity-autocorrelation function modified order-N algorithm: no
Molecular orientation-autocorrelation function modified order-N algorithm: no
Bond orientation-autocorrelation function modified order-N algorithm: no
Mean-squared displacement (conventional algorithm): no
Velocity-autocorrelation function (conventional algorithm): no
3D density grid for adsorbates: no
Compute cation an/or adsorption sites: no
dcTST snapshots: no
Compute pressure and stress: no


VTK
===========================================================================
VTK fractional-range position framework atoms: [-0.001000,1.001000] [-0.001000,1.001000] [-0.001000,1.001000]
VTK fractional-range position framework bonds: [-0.151000,1.151000] [-0.151000,1.151000] [-0.151000,1.151000]
VTK fractional-range com-position adsorbate molecules: [-0.101000,1.101000] [-0.101000,1.101000] [-0.101000,1.101000]
VTK fractional-range com-position cation molecules: [-0.101000,1.101000] [-0.101000,1.101000] [-0.101000,1.101000]
	3D free energy grid made for the full simulation-cell


Thermo/Baro-stat NHC parameters
===========================================================================
External temperature: 298 [K]
Beta: 0.00403598 [energy unit]
External Pressure: 0 [Pa]


Thermostat chain-length: 3
Timescale parameter for thermostat: 0.150000 [ps]
Barostat chain-length:   3
Timescale parameter for barostat:   0.150000 [ps]

Number of Yoshida-Suzuki decomposition steps: 5
Number of respa steps: 5


Method and settings for electrostatics
===============================================================================
Dielectric constant of the medium : 1.000000
Charge from charge-equilibration: no
Ewald summation is used (exact solution of a periodic system)
Relative precision                : 1e-06
Alpha convergence parameter       : 0.265058
kvec (x,y,z)                      : 8 8 8


CFC-RXMC parameters
===========================================================================
Number of reactions: 0


Rattle parameters
===========================================================================
Distance constraint type: r^2-r^2_0
Bend angle constraint type: theta-theta_0
Dihedral angle constraint type: phi-phi_0
Inversion-bend angle constraint type: chi-chi_0
Out-of-plane distance constraint type: r-r_0


Spectra parameters
===========================================================================
Compute normal modes: no


Minimization parameters
===========================================================================
Generalized coordinates are: Cartesian center-of-mass, elements of the orientational matrix p1,p2,p3 and strain
Potential derivatives are evaluated: analytically
Translation of the system is removed from the generalized Hessian: no
Rotation of the system is removed from the generalized Hessian: no
Maximum step-length: 0.3
Convergence factor: 1
Maximum number of minimization steps: 10000
Use gradients in the line-minimizations: yes
RMS gradient tolerance: 1e-06
Maximum gradient tolerance: 1e-06

Distance constraints: 0
Angle constraints: 0
Dihedral constraints: 0

Improper dihedral constraints: 0

Inversion-bend constraints: 0

Out-of-plane constraints: 0

Harmonic distance constraints: 0
Harmonic angle constraints: 0
Harmonic dihedral constraints: 0

Dihedral mid-point measurements: 0

All framework atoms are fixed

Fixed adsorbate atoms:  
Fixed adsorbate groups (center-of-mass):  
Fixed adsorbate groups (orientation):  

Fixed cation atoms:  
Fixed cation groups (center-of-mass):  
Fixed cation groups (orientation):  


dcTST parameters
===========================================================================
Free energy profiles computed: no
Free energy profiles written every 5000 cycles
Free energy mapping: mapped to a,b,c-coordinates
BarrierPosition:       0.0000000000       0.0000000000       0.0000000000
BarrierNormal:         0.0000000000       0.0000000000       0.0000000000
Start with a molecule on top of the barrier: no
Maximum distance to barrier (e.g. distance to minumum free energy):       0.0000000000 [A]
Maximum trajectory time:      10.0000000000 [ps]
Each configuration is used with 5 different initial velocities


Cbmc parameters
===========================================================================
Biasing method: using only the VDW part
Number of trial positions:                                       10
Number of trial positions (reinsertion):                         10
Number of trial positions (partial reinsertion):                 10
Number of trial positions (identity-change):                     10
Number of trial positions (Gibbs particle transfer):             10
Number of trial positions (insertion/deletion):                  10
Number of trial positions (Widom insertion):                     10
Number of trial positions coupled Torsion-selection:             100
Number of trial positions first bead:                            10
Number of trial positions first bead (reinsertion):              10
Number of trial positions first bead (partial reinsertion):      10
Number of trial positions first bead (identity-change):          10
Number of trial positions first bead (Gibbs particle transfer):  10
Number of trial positions first bead (insertion/deletion):       10
Number of trial positions first bead (Widom insertion):          10
Number of trial moves per open bead:                             150
Target acceptance ratio small-mc scheme:                         0.400000
Energy overlap criteria:                                         1e+07
Minimal Rosenbluth factor:                                       1e-150


Pseudo atoms: 51
===========================================================================
Pseudo Atom[   0] Name UNIT     Oxidation:          Element: H    pdb-name: H    Scat. Types:   1   1 Mass=1.000000000  B-factor:0.000   
                 Charge=1.000000000          Polarization=0.000000000  [A^3] (considered a charged atom and no polarization)  Interactions: yes
                 Anisotropic factor:    0.000 [-] (Absolute), Radius:    1.000 [A], Framework-atom:  no
Pseudo Atom[   1] Name He       Oxidation: +0       Element: He   pdb-name: He   Scat. Types:   3   2 Mass=4.002602000  B-factor:1.000   
                 Charge=0.000000000          Polarization=0.000000000  [A^3] (considered a chargeless atom and no polarization)  Interactions: yes
                 Anisotropic factor:    0.000 [-] (Relative), Radius:    1.000 [A], Framework-atom:  no
Pseudo Atom[   2] Name CH4_sp3  Oxidation: +0       Element: C    pdb-name: C    Scat. Types:   7   6 Mass=16.042460000 B-factor:1.000   
                 Charge=0.000000000          Polarization=0.000000000  [A^3] (considered a chargeless atom and no polarization)  Interactions: yes
                 Anisotropic factor:    0.000 [-] (Relative), Radius:    1.000 [A], Framework-atom:  no
Pseudo Atom[   3] Name CH3_sp3  Oxidation: +0       Element: C    pdb-name: C    Scat. Types:   7   6 Mass=15.034520000 B-factor:1.000   
                 Charge=0.000000000          Polarization=0.000000000  [A^3] (considered a chargeless atom and no polarization)  Interactions: yes
                 Anisotropic factor:    0.000 [-] (Relative), Radius:    1.000 [A], Framework-atom:  no
Pseudo Atom[   4] Name CH2_sp3  Oxidation: +0       Element: C    pdb-name: C    Scat. Types:   7   6 Mass=14.026580000 B-factor:1.000   
                 Charge=0.000000000          Polarization=0.000000000  [A^3] (considered a chargeless atom and no polarization)  Interactions: yes
                 Anisotropic factor:    0.000 [-] (Relative), Radius:    1.000 [A], Framework-atom:  no
Pseudo Atom[   5] Name CH_sp3   Oxidation: +0       Element: C    pdb-name: C    Scat. Types:   7   6 Mass=13.018640000 B-factor:1.000   
                 Charge=0.000000000          Polarization=0.000000000  [A^3] (considered a chargeless atom and no polarization)  Interactions: yes
                 Anisotropic factor:    0.000 [-] (Relative), Radius:    1.000 [A], Framework-atom:  no
Pseudo Atom[   6] Name C_sp3    Oxidation: +0       Element: C    pdb-name: C    Scat. Types:   7   6 Mass=12.000000000 B-factor:1.000   
                 Charge=0.000000000          Polarization=0.000000000  [A^3] (considered a chargeless atom and no polarization)  Interactions: yes
                 Anisotropic factor:    0.000 [-] (Relative), Radius:    1.000 [A], Framework-atom:  no
Pseudo Atom[   7] Name H_h2     Oxidation: +0       Element: H    pdb-name: H    Scat. Types:   1   1 Mass=1.007940000  B-factor:1.000   
                 Charge=0.468000000          Polarization=0.000000000  [A^3] (considered a charged atom and no polarization)  Interactions: yes
                 Anisotropic factor:    0.000 [-] (Relative), Radius:    0.700 [A], Framework-atom:  no
Pseudo Atom[   8] Name H_com    Oxidation: +0       Element: H    pdb-name: H    Scat. Types:   1   1 Mass=0.000000000  B-factor:1.000   
                 Charge=-0.936000000         Polarization=0.000000000  [A^3] (considered a charged atom and no polarization)  Interactions: yes
                 Anisotropic factor:    0.000 [-] (Relative), Radius:    0.700 [A], Framework-atom:  no
Pseudo Atom[   9] Name C_co2    Oxidation: +0       Element: C    pdb-name: C    Scat. Types:   7   6 Mass=12.000000000 B-factor:1.000   
                 Charge=0.651200000          Polarization=0.000000000  [A^3] (considered a charged atom and no polarization)  Interactions: yes
                 Anisotropic factor:    0.000 [-] (Relative), Radius:    0.720 [A], Framework-atom:  no
Pseudo Atom[  10] Name O_co2    Oxidation: +0       Element: O    pdb-name: O    Scat. Types:   9   8 Mass=15.999400000 B-factor:1.000   
                 Charge=-0.325600000         Polarization=0.000000000  [A^3] (considered a charged atom and no polarization)  Interactions: yes
                 Anisotropic factor:    0.000 [-] (Relative), Radius:    0.680 [A], Framework-atom:  no
Pseudo Atom[  11] Name O_o2     Oxidation: +0       Element: O    pdb-name: O    Scat. Types:   9   8 Mass=15.999400000 B-factor:1.000   
                 Charge=-0.112000000         Polarization=0.000000000  [A^3] (considered a charged atom and no polarization)  Interactions: yes
                 Anisotropic factor:    0.000 [-] (Relative), Radius:    0.700 [A], Framework-atom:  no
Pseudo Atom[  12] Name O_com    Oxidation: +0       Element: -    pdb-name: O    Scat. Types:   0   8 Mass=0.000000000  B-factor:1.000   
                 Charge=0.224000000          Polarization=0.000000000  [A^3] (considered a charged atom and no polarization)  Interactions: yes
                 Anisotropic factor:    0.000 [-] (Relative), Radius:    0.700 [A], Framework-atom:  no
Pseudo Atom[  13] Name N_n2     Oxidation: +0       Element: N    pdb-name: N    Scat. Types:   8   7 Mass=14.006740000 B-factor:1.000   
                 Charge=-0.405000000         Polarization=0.000000000  [A^3] (considered a charged atom and no polarization)  Interactions: yes
                 Anisotropic factor:    0.000 [-] (Relative), Radius:    0.700 [A], Framework-atom:  no
Pseudo Atom[  14] Name N_com    Oxidation: +0       Element: -    pdb-name: N    Scat. Types:   0   7 Mass=0.000000000  B-factor:1.000   
                 Charge=0.810000000          Polarization=0.000000000  [A^3] (considered a charged atom and no polarization)  Interactions: yes
                 Anisotropic factor:    0.000 [-] (Relative), Radius:    0.700 [A], Framework-atom:  no
Pseudo Atom[  15] Name Ar       Oxidation: +0       Element: Ar   pdb-name: Ar   Scat. Types:  19  18 Mass=39.948000000 B-factor:1.000   
                 Charge=0.000000000          Polarization=0.000000000  [A^3] (considered a chargeless atom and no polarization)  Interactions: yes
                 Anisotropic factor:    0.000 [-] (Relative), Radius:    0.700 [A], Framework-atom:  no
Pseudo Atom[  16] Name Ow       Oxidation: +0       Element: O    pdb-name: O    Scat. Types:   9   8 Mass=15.999400000 B-factor:1.000   
                 Charge=0.000000000          Polarization=0.000000000  [A^3] (considered a chargeless atom and no polarization)  Interactions: yes
                 Anisotropic factor:    0.000 [-] (Relative), Radius:    0.500 [A], Framework-atom:  no
Pseudo Atom[  17] Name Hw       Oxidation: +0       Element: H    pdb-name: H    Scat. Types:   1   1 Mass=1.007940000  B-factor:1.000   
                 Charge=0.241000000          Polarization=0.000000000  [A^3] (considered a charged atom and no polarization)  Interactions: yes
                 Anisotropic factor:    0.000 [-] (Relative), Radius:    1.000 [A], Framework-atom:  no
Pseudo Atom[  18] Name Lw       Oxidation: +0       Element: H    pdb-name: L    Scat. Types:   1   3 Mass=0.000000000  B-factor:1.000   
                 Charge=-0.241000000         Polarization=0.000000000  [A^3] (considered a charged atom and no polarization)  Interactions: yes
                 Anisotropic factor:    0.000 [-] (Relative), Radius:    1.000 [A], Framework-atom:  no
Pseudo Atom[  19] Name C_benz   Oxidation: +0       Element: C    pdb-name: C    Scat. Types:   7   6 Mass=12.000000000 B-factor:1.000   
                 Charge=-0.095000000         Polarization=0.000000000  [A^3] (considered a charged atom and no polarization)  Interactions: yes
                 Anisotropic factor:    0.000 [-] (Relative), Radius:    0.700 [A], Framework-atom:  no
Pseudo Atom[  20] Name H_benz   Oxidation: +0       Element: H    pdb-name: H    Scat. Types:   1   1 Mass=1.007940000  B-factor:1.000   
                 Charge=0.095000000          Polarization=0.000000000  [A^3] (considered a charged atom and no polarization)  Interactions: yes
                 Anisotropic factor:    0.000 [-] (Relative), Radius:    0.320 [A], Framework-atom:  no
Pseudo Atom[  21] Name N_dmf    Oxidation: +0       Element: N    pdb-name: N    Scat. Types:   8   7 Mass=14.006740000 B-factor:1.000   
                 Charge=-0.570000000         Polarization=0.000000000  [A^3] (considered a charged atom and no polarization)  Interactions: yes
                 Anisotropic factor:    0.000 [-] (Relative), Radius:    0.500 [A], Framework-atom:  no
Pseudo Atom[  22] Name Co_dmf   Oxidation: +0       Element: C    pdb-name: C    Scat. Types:   7   6 Mass=12.000000000 B-factor:1.000   
                 Charge=0.450000000          Polarization=0.000000000  [A^3] (considered a charged atom and no polarization)  Interactions: yes
                 Anisotropic factor:    0.000 [-] (Relative), Radius:    0.520 [A], Framework-atom:  no
Pseudo Atom[  23] Name Cm_dmf   Oxidation: +0       Element: C    pdb-name: C    Scat. Types:   7   6 Mass=12.000000000 B-factor:1.000   
                 Charge=0.280000000          Polarization=0.000000000  [A^3] (considered a charged atom and no polarization)  Interactions: yes
                 Anisotropic factor:    0.000 [-] (Relative), Radius:    0.520 [A], Framework-atom:  no
Pseudo Atom[  24] Name O_dmf    Oxidation: +0       Element: O    pdb-name: O    Scat. Types:   9   8 Mass=15.999400000 B-factor:1.000   
                 Charge=-0.500000000         Polarization=0.000000000  [A^3] (considered a charged atom and no polarization)  Interactions: yes
                 Anisotropic factor:    0.000 [-] (Relative), Radius:    0.780 [A], Framework-atom:  no
Pseudo Atom[  25] Name H_dmf    Oxidation: +0       Element: H    pdb-name: H    Scat. Types:   1   1 Mass=1.007940000  B-factor:1.000   
                 Charge=0.060000000          Polarization=0.000000000  [A^3] (considered a charged atom and no polarization)  Interactions: yes
                 Anisotropic factor:    0.000 [-] (Relative), Radius:    0.220 [A], Framework-atom:  no
Pseudo Atom[  26] Name Na       Oxidation: +0       Element: Na   pdb-name: Na   Scat. Types:  12  11 Mass=22.989770000 B-factor:1.000   
                 Charge=1.000000000          Polarization=0.000000000  [A^3] (considered a charged atom and no polarization)  Interactions: yes
                 Anisotropic factor:    0.000 [-] (Relative), Radius:    1.000 [A], Framework-atom:  no
Pseudo Atom[  27] Name Cl       Oxidation: +0       Element: Cl   pdb-name: Cl   Scat. Types:  18  17 Mass=35.453000000 B-factor:1.000   
                 Charge=-1.000000000         Polarization=0.000000000  [A^3] (considered a charged atom and no polarization)  Interactions: yes
                 Anisotropic factor:    0.000 [-] (Relative), Radius:    1.000 [A], Framework-atom:  no
Pseudo Atom[  28] Name Kr       Oxidation: +0       Element: Kr   pdb-name: Kr   Scat. Types:  37  36 Mass=83.798000000 B-factor:1.000   
                 Charge=0.000000000          Polarization=0.000000000  [A^3] (considered a chargeless atom and no polarization)  Interactions: yes
                 Anisotropic factor:    0.000 [-] (Relative), Radius:    1.000 [A], Framework-atom:  no
Pseudo Atom[  29] Name Xe       Oxidation: +0       Element: Xe   pdb-name: Xe   Scat. Types:  55  54 Mass=131.293000000 B-factor:1.000   
                 Charge=0.000000000          Polarization=0.000000000  [A^3] (considered a chargeless atom and no polarization)  Interactions: yes
                 Anisotropic factor:    0.000 [-] (Relative), Radius:    1.000 [A], Framework-atom:  no
Pseudo Atom[  30] Name Zn1      Oxidation:          Element: Zn   pdb-name: Zn   Scat. Types:  31  30 Mass=65.408728088 B-factor:0.000   
                 Charge=0.000000000  (-na-)  Polarization=5.750000000  [A^3] (considered a chargeless atom and no polarization)  Interactions: yes
                 Anisotropic factor:    0.000 [-] (Absolute), Radius:    1.200 [A], Framework-atom: yes (charge definition not found)
Pseudo Atom[  31] Name C1A      Oxidation:          Element: C    pdb-name: C    Scat. Types:   7   6 Mass=12.010735897 B-factor:0.000   
                 Charge=0.000000000  (-na-)  Polarization=1.760000000  [A^3] (considered a chargeless atom and no polarization)  Interactions: yes
                 Anisotropic factor:    0.000 [-] (Absolute), Radius:    0.750 [A], Framework-atom: yes (charge definition not found)
Pseudo Atom[  32] Name H1A      Oxidation:          Element: H    pdb-name: H    Scat. Types:   1   1 Mass=1.007940754  B-factor:0.000   
                 Charge=0.000000000  (-na-)  Polarization=0.666793000  [A^3] (considered a chargeless atom and no polarization)  Interactions: yes
                 Anisotropic factor:    0.000 [-] (Absolute), Radius:    0.320 [A], Framework-atom: yes (charge definition not found)
Pseudo Atom[  33] Name N2A      Oxidation:          Element: N    pdb-name: N    Scat. Types:   8   7 Mass=14.006703212 B-factor:0.000   
                 Charge=0.000000000  (-na-)  Polarization=1.100000000  [A^3] (considered a chargeless atom and no polarization)  Interactions: yes
                 Anisotropic factor:    0.000 [-] (Absolute), Radius:    0.710 [A], Framework-atom: yes (charge definition not found)
Pseudo Atom[  34] Name C3A      Oxidation:          Element: C    pdb-name: C    Scat. Types:   7   6 Mass=12.010735897 B-factor:0.000   
                 Charge=0.000000000  (-na-)  Polarization=1.760000000  [A^3] (considered a chargeless atom and no polarization)  Interactions: yes
                 Anisotropic factor:    0.000 [-] (Absolute), Radius:    0.750 [A], Framework-atom: yes (charge definition not found)
Pseudo Atom[  35] Name Cl4A     Oxidation:          Element: Cl   pdb-name: Cl   Scat. Types:  18  17 Mass=35.452937578 B-factor:0.000   
                 Charge=0.000000000  (-na-)  Polarization=2.180000000  [A^3] (considered a chargeless atom and no polarization)  Interactions: yes
                 Anisotropic factor:    0.000 [-] (Absolute), Radius:    1.000 [A], Framework-atom: yes (charge definition not found)
Pseudo Atom[  36] Name C1B      Oxidation:          Element: C    pdb-name: C    Scat. Types:   7   6 Mass=12.010735897 B-factor:0.000   
                 Charge=0.000000000  (-na-)  Polarization=1.760000000  [A^3] (considered a chargeless atom and no polarization)  Interactions: yes
                 Anisotropic factor:    0.000 [-] (Absolute), Radius:    0.750 [A], Framework-atom: yes (charge definition not found)
Pseudo Atom[  37] Name H1B      Oxidation:          Element: H    pdb-name: H    Scat. Types:   1   1 Mass=1.007940754  B-factor:0.000   
                 Charge=0.000000000  (-na-)  Polarization=0.666793000  [A^3] (considered a chargeless atom and no polarization)  Interactions: yes
                 Anisotropic factor:    0.000 [-] (Absolute), Radius:    0.320 [A], Framework-atom: yes (charge definition not found)
Pseudo Atom[  38] Name N2B      Oxidation:          Element: N    pdb-name: N    Scat. Types:   8   7 Mass=14.006703212 B-factor:0.000   
                 Charge=0.000000000  (-na-)  Polarization=1.100000000  [A^3] (considered a chargeless atom and no polarization)  Interactions: yes
                 Anisotropic factor:    0.000 [-] (Absolute), Radius:    0.710 [A], Framework-atom: yes (charge definition not found)
Pseudo Atom[  39] Name C3B      Oxidation:          Element: C    pdb-name: C    Scat. Types:   7   6 Mass=12.010735897 B-factor:0.000   
                 Charge=0.000000000  (-na-)  Polarization=1.760000000  [A^3] (considered a chargeless atom and no polarization)  Interactions: yes
                 Anisotropic factor:    0.000 [-] (Absolute), Radius:    0.750 [A], Framework-atom: yes (charge definition not found)
Pseudo Atom[  40] Name Cl4B     Oxidation:          Element: Cl   pdb-name: Cl   Scat. Types:  18  17 Mass=35.452937578 B-factor:0.000   
                 Charge=0.000000000  (-na-)  Polarization=2.180000000  [A^3] (considered a chargeless atom and no polarization)  Interactions: yes
                 Anisotropic factor:    0.000 [-] (Absolute), Radius:    1.000 [A], Framework-atom: yes (charge definition not found)
Pseudo Atom[  41] Name C1C      Oxidation:          Element: C    pdb-name: C    Scat. Types:   7   6 Mass=12.010735897 B-factor:0.000   
                 Charge=0.000000000  (-na-)  Polarization=1.760000000  [A^3] (considered a chargeless atom and no polarization)  Interactions: yes
                 Anisotropic factor:    0.000 [-] (Absolute), Radius:    0.750 [A], Framework-atom: yes (charge definition not found)
Pseudo Atom[  42] Name H1C      Oxidation:          Element: H    pdb-name: H    Scat. Types:   1   1 Mass=1.007940754  B-factor:0.000   
                 Charge=0.000000000  (-na-)  Polarization=0.666793000  [A^3] (considered a chargeless atom and no polarization)  Interactions: yes
                 Anisotropic factor:    0.000 [-] (Absolute), Radius:    0.320 [A], Framework-atom: yes (charge definition not found)
Pseudo Atom[  43] Name N2C      Oxidation:          Element: N    pdb-name: N    Scat. Types:   8   7 Mass=14.006703212 B-factor:0.000   
                 Charge=0.000000000  (-na-)  Polarization=1.100000000  [A^3] (considered a chargeless atom and no polarization)  Interactions: yes
                 Anisotropic factor:    0.000 [-] (Absolute), Radius:    0.710 [A], Framework-atom: yes (charge definition not found)
Pseudo Atom[  44] Name C3C      Oxidation:          Element: C    pdb-name: C    Scat. Types:   7   6 Mass=12.010735897 B-factor:0.000   
                 Charge=0.000000000  (-na-)  Polarization=1.760000000  [A^3] (considered a chargeless atom and no polarization)  Interactions: yes
                 Anisotropic factor:    0.000 [-] (Absolute), Radius:    0.750 [A], Framework-atom: yes (charge definition not found)
Pseudo Atom[  45] Name Cl4C     Oxidation:          Element: Cl   pdb-name: Cl   Scat. Types:  18  17 Mass=35.452937578 B-factor:0.000   
                 Charge=0.000000000  (-na-)  Polarization=2.180000000  [A^3] (considered a chargeless atom and no polarization)  Interactions: yes
                 Anisotropic factor:    0.000 [-] (Absolute), Radius:    1.000 [A], Framework-atom: yes (charge definition not found)
Pseudo Atom[  46] Name C1D      Oxidation:          Element: C    pdb-name: C    Scat. Types:   7   6 Mass=12.010735897 B-factor:0.000   
                 Charge=0.000000000  (-na-)  Polarization=1.760000000  [A^3] (considered a chargeless atom and no polarization)  Interactions: yes
                 Anisotropic factor:    0.000 [-] (Absolute), Radius:    0.750 [A], Framework-atom: yes (charge definition not found)
Pseudo Atom[  47] Name H1D      Oxidation:          Element: H    pdb-name: H    Scat. Types:   1   1 Mass=1.007940754  B-factor:0.000   
                 Charge=0.000000000  (-na-)  Polarization=0.666793000  [A^3] (considered a chargeless atom and no polarization)  Interactions: yes
                 Anisotropic factor:    0.000 [-] (Absolute), Radius:    0.320 [A], Framework-atom: yes (charge definition not found)
Pseudo Atom[  48] Name N2D      Oxidation:          Element: N    pdb-name: N    Scat. Types:   8   7 Mass=14.006703212 B-factor:0.000   
                 Charge=0.000000000  (-na-)  Polarization=1.100000000  [A^3] (considered a chargeless atom and no polarization)  Interactions: yes
                 Anisotropic factor:    0.000 [-] (Absolute), Radius:    0.710 [A], Framework-atom: yes (charge definition not found)
Pseudo Atom[  49] Name C3D      Oxidation:          Element: C    pdb-name: C    Scat. Types:   7   6 Mass=12.010735897 B-factor:0.000   
                 Charge=0.000000000  (-na-)  Polarization=1.760000000  [A^3] (considered a chargeless atom and no polarization)  Interactions: yes
                 Anisotropic factor:    0.000 [-] (Absolute), Radius:    0.750 [A], Framework-atom: yes (charge definition not found)
Pseudo Atom[  50] Name Cl4D     Oxidation:          Element: Cl   pdb-name: Cl   Scat. Types:  18  17 Mass=35.452937578 B-factor:0.000   
                 Charge=0.000000000  (-na-)  Polarization=2.180000000  [A^3] (considered a chargeless atom and no polarization)  Interactions: yes
                 Anisotropic factor:    0.000 [-] (Absolute), Radius:    1.000 [A], Framework-atom: yes (charge definition not found)


Forcefield: GenericMOFs
===========================================================================
Minimal distance: 1
CutOff VDW : 12.000000 (144.000000)
CutOff VDW switching on: 10.800000 (116.640000)
CutOff charge-charge : 12.000000 (144.000000)
CutOff charge-charge switching on: 7.800000 (60.840000)
CutOff charge-bonddipole : 12.000000 (144.000000)
CutOff charge-bondipole switching on: 8.400000 (70.560000)
CutOff bonddipole-bonddipole : 12.000000 (144.000000)
CutOff bonddipole-bondipole switching on: 9.000000 (81.000000)
Polarization is neglected
All potentials are shifted to zero at the Cutoff

General mixing rule: Lorentz-Berthelot mixing rules are used FIRST for cross terms
0 cross terms are overwritten using the individual mixing rules from the file 'force_field_mixing_rules.def'
and then 0 terms are overwritten using the specific interactions from the file 'force_field.def'

The force field and all the interactions:
     He -      He [LENNARD_JONES] p_0/k_B:  10.90000 [K], p_1: 2.64000 [A], shift/k_B:  -0.00494280 [K], tailcorrection: no
     He - CH4_sp3 [LENNARD_JONES] p_0/k_B:  41.56501 [K], p_1: 3.18000 [A], shift/k_B:  -0.05755893 [K], tailcorrection: no
     He - CH3_sp3 [LENNARD_JONES] p_0/k_B:  34.31035 [K], p_1: 3.20000 [A], shift/k_B:  -0.04933343 [K], tailcorrection: no
     He - CH2_sp3 [LENNARD_JONES] p_0/k_B:  24.70627 [K], p_1: 3.30000 [A], shift/k_B:  -0.04272436 [K], tailcorrection: no
     He -  CH_sp3 [LENNARD_JONES] p_0/k_B:  13.61249 [K], p_1: 3.65500 [A], shift/k_B:  -0.04343978 [K], tailcorrection: no
     He -   C_sp3 [LENNARD_JONES] p_0/k_B:   2.95296 [K], p_1: 4.51000 [A], shift/k_B:  -0.03319436 [K], tailcorrection: no
     He -    H_h2 [ZERO_POTENTIAL]
     He -   H_com [LENNARD_JONES] p_0/k_B:  20.00075 [K], p_1: 2.79900 [A], shift/k_B:  -0.01288149 [K], tailcorrection: no
     He -   C_co2 [LENNARD_JONES] p_0/k_B:  18.06294 [K], p_1: 2.69250 [A], shift/k_B:  -0.00921806 [K], tailcorrection: no
     He -   O_co2 [LENNARD_JONES] p_0/k_B:  30.55837 [K], p_1: 2.82850 [A], shift/k_B:  -0.02095875 [K], tailcorrection: no
     He -    O_o2 [LENNARD_JONES] p_0/k_B:  22.91120 [K], p_1: 2.83657 [A], shift/k_B:  -0.01598491 [K], tailcorrection: no
     He -   O_com [LENNARD_JONES] p_0/k_B:  22.91120 [K], p_1: 2.83657 [A], shift/k_B:  -0.01598491 [K], tailcorrection: no
     He -    N_n2 [LENNARD_JONES] p_0/k_B:  20.43155 [K], p_1: 2.97300 [A], shift/k_B:  -0.01889482 [K], tailcorrection: no
     He -   N_com [ZERO_POTENTIAL]
     He -      Ar [LENNARD_JONES] p_0/k_B:  36.77449 [K], p_1: 3.01000 [A], shift/k_B:  -0.03662773 [K], tailcorrection: no
     He -      Ow [LENNARD_JONES] p_0/k_B:  31.25699 [K], p_1: 2.86850 [A], shift/k_B:  -0.02332211 [K], tailcorrection: no
     He -      Hw [LENNARD_JONES] p_0/k_B:   9.13090 [K], p_1: 2.74321 [A], shift/k_B:  -0.00521169 [K], tailcorrection: no
     He -  C_benz [LENNARD_JONES] p_0/k_B:  18.29289 [K], p_1: 3.12000 [A], shift/k_B:  -0.02259687 [K], tailcorrection: no
     He -  H_benz [LENNARD_JONES] p_0/k_B:  16.65548 [K], p_1: 2.50000 [A], shift/k_B:  -0.00544671 [K], tailcorrection: no
     He -   N_dmf [LENNARD_JONES] p_0/k_B:  29.52965 [K], p_1: 2.92000 [A], shift/k_B:  -0.02451533 [K], tailcorrection: no
     He -  Co_dmf [LENNARD_JONES] p_0/k_B:  23.34524 [K], p_1: 3.17000 [A], shift/k_B:  -0.03172333 [K], tailcorrection: no
     He -  Cm_dmf [LENNARD_JONES] p_0/k_B:  29.52965 [K], p_1: 3.22000 [A], shift/k_B:  -0.04407617 [K], tailcorrection: no
     He -   O_dmf [LENNARD_JONES] p_0/k_B:  33.01515 [K], p_1: 2.80000 [A], shift/k_B:  -0.02130904 [K], tailcorrection: no
     He -   H_dmf [LENNARD_JONES] p_0/k_B:   9.33809 [K], p_1: 2.42000 [A], shift/k_B:  -0.00251243 [K], tailcorrection: no
     He -      Na [LENNARD_JONES] p_0/k_B:  20.60452 [K], p_1: 2.95128 [A], shift/k_B:  -0.01823482 [K], tailcorrection: no
     He -      Cl [LENNARD_JONES] p_0/k_B:  39.41987 [K], p_1: 3.07966 [A], shift/k_B:  -0.04503811 [K], tailcorrection: no
     He -      Kr [LENNARD_JONES] p_0/k_B:  42.58826 [K], p_1: 3.13800 [A], shift/k_B:  -0.05445543 [K], tailcorrection: no
     He -      Xe [LENNARD_JONES] p_0/k_B:  49.08055 [K], p_1: 3.37000 [A], shift/k_B:  -0.09626052 [K], tailcorrection: no
     He -     Zn1 [LENNARD_JONES] p_0/k_B:  26.07971 [K], p_1: 2.55077 [A], shift/k_B:  -0.00962206 [K], tailcorrection: no
     He -     C1A [LENNARD_JONES] p_0/k_B:  22.83928 [K], p_1: 3.05649 [A], shift/k_B:  -0.02493896 [K], tailcorrection: no
     He -     H1A [LENNARD_JONES] p_0/k_B:   9.13090 [K], p_1: 2.74321 [A], shift/k_B:  -0.00521169 [K], tailcorrection: no
     He -     N2A [LENNARD_JONES] p_0/k_B:  20.60452 [K], p_1: 2.95128 [A], shift/k_B:  -0.01823482 [K], tailcorrection: no
     He -     C3A [LENNARD_JONES] p_0/k_B:  22.83928 [K], p_1: 3.05649 [A], shift/k_B:  -0.02493896 [K], tailcorrection: no
     He -    Cl4A [LENNARD_JONES] p_0/k_B:  39.41987 [K], p_1: 3.07966 [A], shift/k_B:  -0.04503811 [K], tailcorrection: no
     He -     C1B [LENNARD_JONES] p_0/k_B:  22.83928 [K], p_1: 3.05649 [A], shift/k_B:  -0.02493896 [K], tailcorrection: no
     He -     H1B [LENNARD_JONES] p_0/k_B:   9.13090 [K], p_1: 2.74321 [A], shift/k_B:  -0.00521169 [K], tailcorrection: no
     He -     N2B [LENNARD_JONES] p_0/k_B:  20.60452 [K], p_1: 2.95128 [A], shift/k_B:  -0.01823482 [K], tailcorrection: no
     He -     C3B [LENNARD_JONES] p_0/k_B:  22.83928 [K], p_1: 3.05649 [A], shift/k_B:  -0.02493896 [K], tailcorrection: no
     He -    Cl4B [LENNARD_JONES] p_0/k_B:  39.41987 [K], p_1: 3.07966 [A], shift/k_B:  -0.04503811 [K], tailcorrection: no
     He -     C1C [LENNARD_JONES] p_0/k_B:  22.83928 [K], p_1: 3.05649 [A], shift/k_B:  -0.02493896 [K], tailcorrection: no
     He -     H1C [LENNARD_JONES] p_0/k_B:   9.13090 [K], p_1: 2.74321 [A], shift/k_B:  -0.00521169 [K], tailcorrection: no
     He -     N2C [LENNARD_JONES] p_0/k_B:  20.60452 [K], p_1: 2.95128 [A], shift/k_B:  -0.01823482 [K], tailcorrection: no
     He -     C3C [LENNARD_JONES] p_0/k_B:  22.83928 [K], p_1: 3.05649 [A], shift/k_B:  -0.02493896 [K], tailcorrection: no
     He -    Cl4C [LENNARD_JONES] p_0/k_B:  39.41987 [K], p_1: 3.07966 [A], shift/k_B:  -0.04503811 [K], tailcorrection: no
     He -     C1D [LENNARD_JONES] p_0/k_B:  22.83928 [K], p_1: 3.05649 [A], shift/k_B:  -0.02493896 [K], tailcorrection: no
     He -     H1D [LENNARD_JONES] p_0/k_B:   9.13090 [K], p_1: 2.74321 [A], shift/k_B:  -0.00521169 [K], tailcorrection: no
     He -     N2D [LENNARD_JONES] p_0/k_B:  20.60452 [K], p_1: 2.95128 [A], shift/k_B:  -0.01823482 [K], tailcorrection: no
     He -     C3D [LENNARD_JONES] p_0/k_B:  22.83928 [K], p_1: 3.05649 [A], shift/k_B:  -0.02493896 [K], tailcorrection: no
     He -    Cl4D [LENNARD_JONES] p_0/k_B:  39.41987 [K], p_1: 3.07966 [A], shift/k_B:  -0.04503811 [K], tailcorrection: no
CH4_sp3 - CH4_sp3 [LENNARD_JONES] p_0/k_B: 158.50000 [K], p_1: 3.72000 [A], shift/k_B:  -0.56217796 [K], tailcorrection: no
CH4_sp3 - CH3_sp3 [LENNARD_JONES] p_0/k_B: 130.83577 [K], p_1: 3.74000 [A], shift/k_B:  -0.47921501 [K], tailcorrection: no
CH4_sp3 - CH2_sp3 [LENNARD_JONES] p_0/k_B:  94.21253 [K], p_1: 3.84000 [A], shift/k_B:  -0.40420524 [K], tailcorrection: no
CH4_sp3 -  CH_sp3 [LENNARD_JONES] p_0/k_B:  51.90857 [K], p_1: 4.19500 [A], shift/k_B:  -0.37827707 [K], tailcorrection: no
CH4_sp3 -   C_sp3 [LENNARD_JONES] p_0/k_B:  11.26055 [K], p_1: 5.05000 [A], shift/k_B:  -0.24880626 [K], tailcorrection: no
CH4_sp3 -    H_h2 [ZERO_POTENTIAL]
CH4_sp3 -   H_com [LENNARD_JONES] p_0/k_B:  76.26893 [K], p_1: 3.33900 [A], shift/k_B:  -0.14151976 [K], tailcorrection: no
CH4_sp3 -   C_co2 [LENNARD_JONES] p_0/k_B:  68.87946 [K], p_1: 3.23250 [A], shift/k_B:  -0.10522708 [K], tailcorrection: no
CH4_sp3 -   O_co2 [LENNARD_JONES] p_0/k_B: 116.52834 [K], p_1: 3.36850 [A], shift/k_B:  -0.22793491 [K], tailcorrection: no
CH4_sp3 -    O_o2 [LENNARD_JONES] p_0/k_B:  87.36738 [K], p_1: 3.37657 [A], shift/k_B:  -0.17336627 [K], tailcorrection: no
CH4_sp3 -   O_com [LENNARD_JONES] p_0/k_B:  87.36738 [K], p_1: 3.37657 [A], shift/k_B:  -0.17336627 [K], tailcorrection: no
CH4_sp3 -    N_n2 [LENNARD_JONES] p_0/k_B:  77.91170 [K], p_1: 3.51300 [A], shift/k_B:  -0.19605171 [K], tailcorrection: no
CH4_sp3 -   N_com [ZERO_POTENTIAL]
CH4_sp3 -      Ar [LENNARD_JONES] p_0/k_B: 140.23229 [K], p_1: 3.55000 [A], shift/k_B:  -0.37575039 [K], tailcorrection: no
CH4_sp3 -      Ow [LENNARD_JONES] p_0/k_B: 119.19241 [K], p_1: 3.40850 [A], shift/k_B:  -0.25024924 [K], tailcorrection: no
CH4_sp3 -      Hw [LENNARD_JONES] p_0/k_B:  34.81889 [K], p_1: 3.28321 [A], shift/k_B:  -0.05839790 [K], tailcorrection: no
CH4_sp3 -  C_benz [LENNARD_JONES] p_0/k_B:  69.75636 [K], p_1: 3.66000 [A], shift/k_B:  -0.22443630 [K], tailcorrection: no
CH4_sp3 -  H_benz [LENNARD_JONES] p_0/k_B:  63.51240 [K], p_1: 3.04000 [A], shift/k_B:  -0.06713635 [K], tailcorrection: no
CH4_sp3 -   N_dmf [LENNARD_JONES] p_0/k_B: 112.60551 [K], p_1: 3.46000 [A], shift/k_B:  -0.25866586 [K], tailcorrection: no
CH4_sp3 -  Co_dmf [LENNARD_JONES] p_0/k_B:  89.02247 [K], p_1: 3.71000 [A], shift/k_B:  -0.31069637 [K], tailcorrection: no
CH4_sp3 -  Cm_dmf [LENNARD_JONES] p_0/k_B: 112.60551 [K], p_1: 3.76000 [A], shift/k_B:  -0.42584155 [K], tailcorrection: no
CH4_sp3 -   O_dmf [LENNARD_JONES] p_0/k_B: 125.89678 [K], p_1: 3.34000 [A], shift/k_B:  -0.23402593 [K], tailcorrection: no
CH4_sp3 -   H_dmf [LENNARD_JONES] p_0/k_B:  35.60899 [K], p_1: 2.96000 [A], shift/k_B:  -0.03207632 [K], tailcorrection: no
CH4_sp3 -      Na [LENNARD_JONES] p_0/k_B:  78.57129 [K], p_1: 3.49128 [A], shift/k_B:  -0.19049388 [K], tailcorrection: no
CH4_sp3 -      Cl [LENNARD_JONES] p_0/k_B: 150.31992 [K], p_1: 3.61966 [A], shift/k_B:  -0.45255198 [K], tailcorrection: no
CH4_sp3 -      Kr [LENNARD_JONES] p_0/k_B: 162.40197 [K], p_1: 3.67800 [A], shift/k_B:  -0.53811358 [K], tailcorrection: no
CH4_sp3 -      Xe [LENNARD_JONES] p_0/k_B: 187.15902 [K], p_1: 3.91000 [A], shift/k_B:  -0.89479554 [K], tailcorrection: no
CH4_sp3 -     Zn1 [LENNARD_JONES] p_0/k_B:  99.44985 [K], p_1: 3.09077 [A], shift/k_B:  -0.11610587 [K], tailcorrection: no
CH4_sp3 -     C1A [LENNARD_JONES] p_0/k_B:  87.09310 [K], p_1: 3.59649 [A], shift/k_B:  -0.25230052 [K], tailcorrection: no
CH4_sp3 -     H1A [LENNARD_JONES] p_0/k_B:  34.81889 [K], p_1: 3.28321 [A], shift/k_B:  -0.05839790 [K], tailcorrection: no
CH4_sp3 -     N2A [LENNARD_JONES] p_0/k_B:  78.57129 [K], p_1: 3.49128 [A], shift/k_B:  -0.19049388 [K], tailcorrection: no
CH4_sp3 -     C3A [LENNARD_JONES] p_0/k_B:  87.09310 [K], p_1: 3.59649 [A], shift/k_B:  -0.25230052 [K], tailcorrection: no
CH4_sp3 -    Cl4A [LENNARD_JONES] p_0/k_B: 150.31992 [K], p_1: 3.61966 [A], shift/k_B:  -0.45255198 [K], tailcorrection: no
CH4_sp3 -     C1B [LENNARD_JONES] p_0/k_B:  87.09310 [K], p_1: 3.59649 [A], shift/k_B:  -0.25230052 [K], tailcorrection: no
CH4_sp3 -     H1B [LENNARD_JONES] p_0/k_B:  34.81889 [K], p_1: 3.28321 [A], shift/k_B:  -0.05839790 [K], tailcorrection: no
CH4_sp3 -     N2B [LENNARD_JONES] p_0/k_B:  78.57129 [K], p_1: 3.49128 [A], shift/k_B:  -0.19049388 [K], tailcorrection: no
CH4_sp3 -     C3B [LENNARD_JONES] p_0/k_B:  87.09310 [K], p_1: 3.59649 [A], shift/k_B:  -0.25230052 [K], tailcorrection: no
CH4_sp3 -    Cl4B [LENNARD_JONES] p_0/k_B: 150.31992 [K], p_1: 3.61966 [A], shift/k_B:  -0.45255198 [K], tailcorrection: no
CH4_sp3 -     C1C [LENNARD_JONES] p_0/k_B:  87.09310 [K], p_1: 3.59649 [A], shift/k_B:  -0.25230052 [K], tailcorrection: no
CH4_sp3 -     H1C [LENNARD_JONES] p_0/k_B:  34.81889 [K], p_1: 3.28321 [A], shift/k_B:  -0.05839790 [K], tailcorrection: no
CH4_sp3 -     N2C [LENNARD_JONES] p_0/k_B:  78.57129 [K], p_1: 3.49128 [A], shift/k_B:  -0.19049388 [K], tailcorrection: no
CH4_sp3 -     C3C [LENNARD_JONES] p_0/k_B:  87.09310 [K], p_1: 3.59649 [A], shift/k_B:  -0.25230052 [K], tailcorrection: no
CH4_sp3 -    Cl4C [LENNARD_JONES] p_0/k_B: 150.31992 [K], p_1: 3.61966 [A], shift/k_B:  -0.45255198 [K], tailcorrection: no
CH4_sp3 -     C1D [LENNARD_JONES] p_0/k_B:  87.09310 [K], p_1: 3.59649 [A], shift/k_B:  -0.25230052 [K], tailcorrection: no
CH4_sp3 -     H1D [LENNARD_JONES] p_0/k_B:  34.81889 [K], p_1: 3.28321 [A], shift/k_B:  -0.05839790 [K], tailcorrection: no
CH4_sp3 -     N2D [LENNARD_JONES] p_0/k_B:  78.57129 [K], p_1: 3.49128 [A], shift/k_B:  -0.19049388 [K], tailcorrection: no
CH4_sp3 -     C3D [LENNARD_JONES] p_0/k_B:  87.09310 [K], p_1: 3.59649 [A], shift/k_B:  -0.25230052 [K], tailcorrection: no
CH4_sp3 -    Cl4D [LENNARD_JONES] p_0/k_B: 150.31992 [K], p_1: 3.61966 [A], shift/k_B:  -0.45255198 [K], tailcorrection: no
CH3_sp3 - CH3_sp3 [LENNARD_JONES] p_0/k_B: 108.00000 [K], p_1: 3.76000 [A], shift/k_B:  -0.40842485 [K], tailcorrection: no
CH3_sp3 - CH2_sp3 [LENNARD_JONES] p_0/k_B:  77.76889 [K], p_1: 3.86000 [A], shift/k_B:  -0.34420794 [K], tailcorrection: no
CH3_sp3 -  CH_sp3 [LENNARD_JONES] p_0/k_B:  42.84857 [K], p_1: 4.21500 [A], shift/k_B:  -0.32127575 [K], tailcorrection: no
CH3_sp3 -   C_sp3 [LENNARD_JONES] p_0/k_B:   9.29516 [K], p_1: 5.07000 [A], shift/k_B:  -0.21028090 [K], tailcorrection: no
CH3_sp3 -    H_h2 [ZERO_POTENTIAL]
CH3_sp3 -   H_com [LENNARD_JONES] p_0/k_B:  62.95713 [K], p_1: 3.35900 [A], shift/k_B:  -0.12107891 [K], tailcorrection: no
CH3_sp3 -   C_co2 [LENNARD_JONES] p_0/k_B:  56.85740 [K], p_1: 3.25250 [A], shift/k_B:  -0.09013451 [K], tailcorrection: no
CH3_sp3 -   O_co2 [LENNARD_JONES] p_0/k_B:  96.18975 [K], p_1: 3.38850 [A], shift/k_B:  -0.19495125 [K], tailcorrection: no
CH3_sp3 -    O_o2 [LENNARD_JONES] p_0/k_B:  72.11848 [K], p_1: 3.39657 [A], shift/k_B:  -0.14826646 [K], tailcorrection: no
CH3_sp3 -   O_com [LENNARD_JONES] p_0/k_B:  72.11848 [K], p_1: 3.39657 [A], shift/k_B:  -0.14826646 [K], tailcorrection: no
CH3_sp3 -    N_n2 [LENNARD_JONES] p_0/k_B:  64.31317 [K], p_1: 3.53300 [A], shift/k_B:  -0.16743696 [K], tailcorrection: no
CH3_sp3 -   N_com [ZERO_POTENTIAL]
CH3_sp3 -      Ar [LENNARD_JONES] p_0/k_B: 115.75647 [K], p_1: 3.57000 [A], shift/k_B:  -0.32079374 [K], tailcorrection: no
CH3_sp3 -      Ow [LENNARD_JONES] p_0/k_B:  98.38884 [K], p_1: 3.42850 [A], shift/k_B:  -0.21394739 [K], tailcorrection: no
CH3_sp3 -      Hw [LENNARD_JONES] p_0/k_B:  28.74168 [K], p_1: 3.30321 [A], shift/k_B:  -0.04999342 [K], tailcorrection: no
CH3_sp3 -  C_benz [LENNARD_JONES] p_0/k_B:  57.58125 [K], p_1: 3.68000 [A], shift/k_B:  -0.19141639 [K], tailcorrection: no
CH3_sp3 -  H_benz [LENNARD_JONES] p_0/k_B:  52.42709 [K], p_1: 3.06000 [A], shift/k_B:  -0.05764179 [K], tailcorrection: no
CH3_sp3 -   N_dmf [LENNARD_JONES] p_0/k_B:  92.95160 [K], p_1: 3.48000 [A], shift/k_B:  -0.22102757 [K], tailcorrection: no
CH3_sp3 -  Co_dmf [LENNARD_JONES] p_0/k_B:  73.48469 [K], p_1: 3.73000 [A], shift/k_B:  -0.26486862 [K], tailcorrection: no
CH3_sp3 -  Cm_dmf [LENNARD_JONES] p_0/k_B:  92.95160 [K], p_1: 3.78000 [A], shift/k_B:  -0.36287388 [K], tailcorrection: no
CH3_sp3 -   O_dmf [LENNARD_JONES] p_0/k_B: 103.92305 [K], p_1: 3.36000 [A], shift/k_B:  -0.20022151 [K], tailcorrection: no
CH3_sp3 -   H_dmf [LENNARD_JONES] p_0/k_B:  29.39388 [K], p_1: 2.98000 [A], shift/k_B:  -0.02756926 [K], tailcorrection: no
CH3_sp3 -      Na [LENNARD_JONES] p_0/k_B:  64.85764 [K], p_1: 3.51128 [A], shift/k_B:  -0.16272481 [K], tailcorrection: no
CH3_sp3 -      Cl [LENNARD_JONES] p_0/k_B: 124.08342 [K], p_1: 3.63966 [A], shift/k_B:  -0.38611167 [K], tailcorrection: no
CH3_sp3 -      Kr [LENNARD_JONES] p_0/k_B: 134.05670 [K], p_1: 3.69800 [A], shift/k_B:  -0.45887075 [K], tailcorrection: no
CH3_sp3 -      Xe [LENNARD_JONES] p_0/k_B: 154.49272 [K], p_1: 3.93000 [A], shift/k_B:  -0.76155214 [K], tailcorrection: no
CH3_sp3 -     Zn1 [LENNARD_JONES] p_0/k_B:  82.09210 [K], p_1: 3.11077 [A], shift/k_B:  -0.09962164 [K], tailcorrection: no
CH3_sp3 -     C1A [LENNARD_JONES] p_0/k_B:  71.89207 [K], p_1: 3.61649 [A], shift/k_B:  -0.21530553 [K], tailcorrection: no
CH3_sp3 -     H1A [LENNARD_JONES] p_0/k_B:  28.74168 [K], p_1: 3.30321 [A], shift/k_B:  -0.04999342 [K], tailcorrection: no
CH3_sp3 -     N2A [LENNARD_JONES] p_0/k_B:  64.85764 [K], p_1: 3.51128 [A], shift/k_B:  -0.16272481 [K], tailcorrection: no
CH3_sp3 -     C3A [LENNARD_JONES] p_0/k_B:  71.89207 [K], p_1: 3.61649 [A], shift/k_B:  -0.21530553 [K], tailcorrection: no
CH3_sp3 -    Cl4A [LENNARD_JONES] p_0/k_B: 124.08342 [K], p_1: 3.63966 [A], shift/k_B:  -0.38611167 [K], tailcorrection: no
CH3_sp3 -     C1B [LENNARD_JONES] p_0/k_B:  71.89207 [K], p_1: 3.61649 [A], shift/k_B:  -0.21530553 [K], tailcorrection: no
CH3_sp3 -     H1B [LENNARD_JONES] p_0/k_B:  28.74168 [K], p_1: 3.30321 [A], shift/k_B:  -0.04999342 [K], tailcorrection: no
CH3_sp3 -     N2B [LENNARD_JONES] p_0/k_B:  64.85764 [K], p_1: 3.51128 [A], shift/k_B:  -0.16272481 [K], tailcorrection: no
CH3_sp3 -     C3B [LENNARD_JONES] p_0/k_B:  71.89207 [K], p_1: 3.61649 [A], shift/k_B:  -0.21530553 [K], tailcorrection: no
CH3_sp3 -    Cl4B [LENNARD_JONES] p_0/k_B: 124.08342 [K], p_1: 3.63966 [A], shift/k_B:  -0.38611167 [K], tailcorrection: no
CH3_sp3 -     C1C [LENNARD_JONES] p_0/k_B:  71.89207 [K], p_1: 3.61649 [A], shift/k_B:  -0.21530553 [K], tailcorrection: no
CH3_sp3 -     H1C [LENNARD_JONES] p_0/k_B:  28.74168 [K], p_1: 3.30321 [A], shift/k_B:  -0.04999342 [K], tailcorrection: no
CH3_sp3 -     N2C [LENNARD_JONES] p_0/k_B:  64.85764 [K], p_1: 3.51128 [A], shift/k_B:  -0.16272481 [K], tailcorrection: no
CH3_sp3 -     C3C [LENNARD_JONES] p_0/k_B:  71.89207 [K], p_1: 3.61649 [A], shift/k_B:  -0.21530553 [K], tailcorrection: no
CH3_sp3 -    Cl4C [LENNARD_JONES] p_0/k_B: 124.08342 [K], p_1: 3.63966 [A], shift/k_B:  -0.38611167 [K], tailcorrection: no
CH3_sp3 -     C1D [LENNARD_JONES] p_0/k_B:  71.89207 [K], p_1: 3.61649 [A], shift/k_B:  -0.21530553 [K], tailcorrection: no
CH3_sp3 -     H1D [LENNARD_JONES] p_0/k_B:  28.74168 [K], p_1: 3.30321 [A], shift/k_B:  -0.04999342 [K], tailcorrection: no
CH3_sp3 -     N2D [LENNARD_JONES] p_0/k_B:  64.85764 [K], p_1: 3.51128 [A], shift/k_B:  -0.16272481 [K], tailcorrection: no
CH3_sp3 -     C3D [LENNARD_JONES] p_0/k_B:  71.89207 [K], p_1: 3.61649 [A], shift/k_B:  -0.21530553 [K], tailcorrection: no
CH3_sp3 -    Cl4D [LENNARD_JONES] p_0/k_B: 124.08342 [K], p_1: 3.63966 [A], shift/k_B:  -0.38611167 [K], tailcorrection: no
CH2_sp3 - CH2_sp3 [LENNARD_JONES] p_0/k_B:  56.00000 [K], p_1: 3.96000 [A], shift/k_B:  -0.28891522 [K], tailcorrection: no
CH2_sp3 -  CH_sp3 [LENNARD_JONES] p_0/k_B:  30.85450 [K], p_1: 4.31500 [A], shift/k_B:  -0.26621710 [K], tailcorrection: no
CH2_sp3 -   C_sp3 [LENNARD_JONES] p_0/k_B:   6.69328 [K], p_1: 5.17000 [A], shift/k_B:  -0.17012512 [K], tailcorrection: no
CH2_sp3 -    H_h2 [ZERO_POTENTIAL]
CH2_sp3 -   H_com [LENNARD_JONES] p_0/k_B:  45.33431 [K], p_1: 3.45900 [A], shift/k_B:  -0.10395700 [K], tailcorrection: no
CH2_sp3 -   C_co2 [LENNARD_JONES] p_0/k_B:  40.94201 [K], p_1: 3.35250 [A], shift/k_B:  -0.07783014 [K], tailcorrection: no
CH2_sp3 -   O_co2 [LENNARD_JONES] p_0/k_B:  69.26454 [K], p_1: 3.48850 [A], shift/k_B:  -0.16712968 [K], tailcorrection: no
CH2_sp3 -    O_o2 [LENNARD_JONES] p_0/k_B:  51.93124 [K], p_1: 3.49657 [A], shift/k_B:  -0.12705519 [K], tailcorrection: no
CH2_sp3 -   O_com [LENNARD_JONES] p_0/k_B:  51.93124 [K], p_1: 3.49657 [A], shift/k_B:  -0.12705519 [K], tailcorrection: no
CH2_sp3 -    N_n2 [LENNARD_JONES] p_0/k_B:  46.31078 [K], p_1: 3.63300 [A], shift/k_B:  -0.14253201 [K], tailcorrection: no
CH2_sp3 -   N_com [ZERO_POTENTIAL]
CH2_sp3 -      Ar [LENNARD_JONES] p_0/k_B:  83.35418 [K], p_1: 3.67000 [A], shift/k_B:  -0.27260937 [K], tailcorrection: no
CH2_sp3 -      Ow [LENNARD_JONES] p_0/k_B:  70.84806 [K], p_1: 3.52850 [A], shift/k_B:  -0.18304608 [K], tailcorrection: no
CH2_sp3 -      Hw [LENNARD_JONES] p_0/k_B:  20.69638 [K], p_1: 3.40321 [A], shift/k_B:  -0.04305002 [K], tailcorrection: no
CH2_sp3 -  C_benz [LENNARD_JONES] p_0/k_B:  41.46324 [K], p_1: 3.78000 [A], shift/k_B:  -0.16186838 [K], tailcorrection: no
CH2_sp3 -  H_benz [LENNARD_JONES] p_0/k_B:  37.75182 [K], p_1: 3.16000 [A], shift/k_B:  -0.05033709 [K], tailcorrection: no
CH2_sp3 -   N_dmf [LENNARD_JONES] p_0/k_B:  66.93280 [K], p_1: 3.58000 [A], shift/k_B:  -0.18862679 [K], tailcorrection: no
CH2_sp3 -  Co_dmf [LENNARD_JONES] p_0/k_B:  52.91503 [K], p_1: 3.83000 [A], shift/k_B:  -0.22350377 [K], tailcorrection: no
CH2_sp3 -  Cm_dmf [LENNARD_JONES] p_0/k_B:  66.93280 [K], p_1: 3.88000 [A], shift/k_B:  -0.30556623 [K], tailcorrection: no
CH2_sp3 -   O_dmf [LENNARD_JONES] p_0/k_B:  74.83315 [K], p_1: 3.46000 [A], shift/k_B:  -0.17189906 [K], tailcorrection: no
CH2_sp3 -   H_dmf [LENNARD_JONES] p_0/k_B:  21.16601 [K], p_1: 3.08000 [A], shift/k_B:  -0.02419868 [K], tailcorrection: no
CH2_sp3 -      Na [LENNARD_JONES] p_0/k_B:  46.70284 [K], p_1: 3.61128 [A], shift/k_B:  -0.13866283 [K], tailcorrection: no
CH2_sp3 -      Cl [LENNARD_JONES] p_0/k_B:  89.35028 [K], p_1: 3.73966 [A], shift/k_B:  -0.32708688 [K], tailcorrection: no
CH2_sp3 -      Kr [LENNARD_JONES] p_0/k_B:  96.53186 [K], p_1: 3.79800 [A], shift/k_B:  -0.38773606 [K], tailcorrection: no
CH2_sp3 -      Xe [LENNARD_JONES] p_0/k_B: 111.24747 [K], p_1: 4.03000 [A], shift/k_B:  -0.63748422 [K], tailcorrection: no
CH2_sp3 -     Zn1 [LENNARD_JONES] p_0/k_B:  59.11307 [K], p_1: 3.21077 [A], shift/k_B:  -0.08672731 [K], tailcorrection: no
CH2_sp3 -     C1A [LENNARD_JONES] p_0/k_B:  51.76821 [K], p_1: 3.71650 [A], shift/k_B:  -0.18258013 [K], tailcorrection: no
CH2_sp3 -     H1A [LENNARD_JONES] p_0/k_B:  20.69638 [K], p_1: 3.40321 [A], shift/k_B:  -0.04305002 [K], tailcorrection: no
CH2_sp3 -     N2A [LENNARD_JONES] p_0/k_B:  46.70284 [K], p_1: 3.61128 [A], shift/k_B:  -0.13866283 [K], tailcorrection: no
CH2_sp3 -     C3A [LENNARD_JONES] p_0/k_B:  51.76821 [K], p_1: 3.71650 [A], shift/k_B:  -0.18258013 [K], tailcorrection: no
CH2_sp3 -    Cl4A [LENNARD_JONES] p_0/k_B:  89.35028 [K], p_1: 3.73966 [A], shift/k_B:  -0.32708688 [K], tailcorrection: no
CH2_sp3 -     C1B [LENNARD_JONES] p_0/k_B:  51.76821 [K], p_1: 3.71650 [A], shift/k_B:  -0.18258013 [K], tailcorrection: no
CH2_sp3 -     H1B [LENNARD_JONES] p_0/k_B:  20.69638 [K], p_1: 3.40321 [A], shift/k_B:  -0.04305002 [K], tailcorrection: no
CH2_sp3 -     N2B [LENNARD_JONES] p_0/k_B:  46.70284 [K], p_1: 3.61128 [A], shift/k_B:  -0.13866283 [K], tailcorrection: no
CH2_sp3 -     C3B [LENNARD_JONES] p_0/k_B:  51.76821 [K], p_1: 3.71650 [A], shift/k_B:  -0.18258013 [K], tailcorrection: no
CH2_sp3 -    Cl4B [LENNARD_JONES] p_0/k_B:  89.35028 [K], p_1: 3.73966 [A], shift/k_B:  -0.32708688 [K], tailcorrection: no
CH2_sp3 -     C1C [LENNARD_JONES] p_0/k_B:  51.76821 [K], p_1: 3.71650 [A], shift/k_B:  -0.18258013 [K], tailcorrection: no
CH2_sp3 -     H1C [LENNARD_JONES] p_0/k_B:  20.69638 [K], p_1: 3.40321 [A], shift/k_B:  -0.04305002 [K], tailcorrection: no
CH2_sp3 -     N2C [LENNARD_JONES] p_0/k_B:  46.70284 [K], p_1: 3.61128 [A], shift/k_B:  -0.13866283 [K], tailcorrection: no
CH2_sp3 -     C3C [LENNARD_JONES] p_0/k_B:  51.76821 [K], p_1: 3.71650 [A], shift/k_B:  -0.18258013 [K], tailcorrection: no
CH2_sp3 -    Cl4C [LENNARD_JONES] p_0/k_B:  89.35028 [K], p_1: 3.73966 [A], shift/k_B:  -0.32708688 [K], tailcorrection: no
CH2_sp3 -     C1D [LENNARD_JONES] p_0/k_B:  51.76821 [K], p_1: 3.71650 [A], shift/k_B:  -0.18258013 [K], tailcorrection: no
CH2_sp3 -     H1D [LENNARD_JONES] p_0/k_B:  20.69638 [K], p_1: 3.40321 [A], shift/k_B:  -0.04305002 [K], tailcorrection: no
CH2_sp3 -     N2D [LENNARD_JONES] p_0/k_B:  46.70284 [K], p_1: 3.61128 [A], shift/k_B:  -0.13866283 [K], tailcorrection: no
CH2_sp3 -     C3D [LENNARD_JONES] p_0/k_B:  51.76821 [K], p_1: 3.71650 [A], shift/k_B:  -0.18258013 [K], tailcorrection: no
CH2_sp3 -    Cl4D [LENNARD_JONES] p_0/k_B:  89.35028 [K], p_1: 3.73966 [A], shift/k_B:  -0.32708688 [K], tailcorrection: no
 CH_sp3 -  CH_sp3 [LENNARD_JONES] p_0/k_B:  17.00000 [K], p_1: 4.67000 [A], shift/k_B:  -0.23540268 [K], tailcorrection: no
 CH_sp3 -   C_sp3 [LENNARD_JONES] p_0/k_B:   3.68782 [K], p_1: 5.52500 [A], shift/k_B:  -0.13918063 [K], tailcorrection: no
 CH_sp3 -    H_h2 [ZERO_POTENTIAL]
 CH_sp3 -   H_com [LENNARD_JONES] p_0/k_B:  24.97799 [K], p_1: 3.81400 [A], shift/k_B:  -0.10288835 [K], tailcorrection: no
 CH_sp3 -   C_co2 [LENNARD_JONES] p_0/k_B:  22.55795 [K], p_1: 3.70750 [A], shift/k_B:  -0.07841175 [K], tailcorrection: no
 CH_sp3 -   O_co2 [LENNARD_JONES] p_0/k_B:  38.16290 [K], p_1: 3.84350 [A], shift/k_B:  -0.16462890 [K], tailcorrection: no
 CH_sp3 -    O_o2 [LENNARD_JONES] p_0/k_B:  28.61272 [K], p_1: 3.85157 [A], shift/k_B:  -0.12499330 [K], tailcorrection: no
 CH_sp3 -   O_com [LENNARD_JONES] p_0/k_B:  28.61272 [K], p_1: 3.85157 [A], shift/k_B:  -0.12499330 [K], tailcorrection: no
 CH_sp3 -    N_n2 [LENNARD_JONES] p_0/k_B:  25.51599 [K], p_1: 3.98800 [A], shift/k_B:  -0.13731894 [K], tailcorrection: no
 CH_sp3 -   N_com [ZERO_POTENTIAL]
 CH_sp3 -      Ar [LENNARD_JONES] p_0/k_B:  45.92592 [K], p_1: 4.02500 [A], shift/k_B:  -0.26122023 [K], tailcorrection: no
 CH_sp3 -      Ow [LENNARD_JONES] p_0/k_B:  39.03538 [K], p_1: 3.88350 [A], shift/k_B:  -0.17917260 [K], tailcorrection: no
 CH_sp3 -      Hw [LENNARD_JONES] p_0/k_B:  11.40315 [K], p_1: 3.75821 [A], shift/k_B:  -0.04300051 [K], tailcorrection: no
 CH_sp3 -  C_benz [LENNARD_JONES] p_0/k_B:  22.84513 [K], p_1: 4.13500 [A], shift/k_B:  -0.15271849 [K], tailcorrection: no
 CH_sp3 -  H_benz [LENNARD_JONES] p_0/k_B:  20.80024 [K], p_1: 3.51500 [A], shift/k_B:  -0.05251924 [K], tailcorrection: no
 CH_sp3 -   N_dmf [LENNARD_JONES] p_0/k_B:  36.87818 [K], p_1: 3.93500 [A], shift/k_B:  -0.18317664 [K], tailcorrection: no
 CH_sp3 -  Co_dmf [LENNARD_JONES] p_0/k_B:  29.15476 [K], p_1: 4.18500 [A], shift/k_B:  -0.20944628 [K], tailcorrection: no
 CH_sp3 -  Cm_dmf [LENNARD_JONES] p_0/k_B:  36.87818 [K], p_1: 4.23500 [A], shift/k_B:  -0.28446087 [K], tailcorrection: no
 CH_sp3 -   O_dmf [LENNARD_JONES] p_0/k_B:  41.23106 [K], p_1: 3.81500 [A], shift/k_B:  -0.17010442 [K], tailcorrection: no
 CH_sp3 -   H_dmf [LENNARD_JONES] p_0/k_B:  11.66190 [K], p_1: 3.43500 [A], shift/k_B:  -0.02564859 [K], tailcorrection: no
 CH_sp3 -      Na [LENNARD_JONES] p_0/k_B:  25.73201 [K], p_1: 3.96628 [A], shift/k_B:  -0.13402316 [K], tailcorrection: no
 CH_sp3 -      Cl [LENNARD_JONES] p_0/k_B:  49.22960 [K], p_1: 4.09466 [A], shift/k_B:  -0.31032724 [K], tailcorrection: no
 CH_sp3 -      Kr [LENNARD_JONES] p_0/k_B:  53.18646 [K], p_1: 4.15300 [A], shift/k_B:  -0.36492058 [K], tailcorrection: no
 CH_sp3 -      Xe [LENNARD_JONES] p_0/k_B:  61.29437 [K], p_1: 4.38500 [A], shift/k_B:  -0.58233847 [K], tailcorrection: no
 CH_sp3 -     Zn1 [LENNARD_JONES] p_0/k_B:  32.56972 [K], p_1: 3.56577 [A], shift/k_B:  -0.08962126 [K], tailcorrection: no
 CH_sp3 -     C1A [LENNARD_JONES] p_0/k_B:  28.52289 [K], p_1: 4.07149 [A], shift/k_B:  -0.17379067 [K], tailcorrection: no
 CH_sp3 -     H1A [LENNARD_JONES] p_0/k_B:  11.40315 [K], p_1: 3.75821 [A], shift/k_B:  -0.04300051 [K], tailcorrection: no
 CH_sp3 -     N2A [LENNARD_JONES] p_0/k_B:  25.73201 [K], p_1: 3.96628 [A], shift/k_B:  -0.13402316 [K], tailcorrection: no
 CH_sp3 -     C3A [LENNARD_JONES] p_0/k_B:  28.52289 [K], p_1: 4.07149 [A], shift/k_B:  -0.17379067 [K], tailcorrection: no
 CH_sp3 -    Cl4A [LENNARD_JONES] p_0/k_B:  49.22960 [K], p_1: 4.09466 [A], shift/k_B:  -0.31032724 [K], tailcorrection: no
 CH_sp3 -     C1B [LENNARD_JONES] p_0/k_B:  28.52289 [K], p_1: 4.07149 [A], shift/k_B:  -0.17379067 [K], tailcorrection: no
 CH_sp3 -     H1B [LENNARD_JONES] p_0/k_B:  11.40315 [K], p_1: 3.75821 [A], shift/k_B:  -0.04300051 [K], tailcorrection: no
 CH_sp3 -     N2B [LENNARD_JONES] p_0/k_B:  25.73201 [K], p_1: 3.96628 [A], shift/k_B:  -0.13402316 [K], tailcorrection: no
 CH_sp3 -     C3B [LENNARD_JONES] p_0/k_B:  28.52289 [K], p_1: 4.07149 [A], shift/k_B:  -0.17379067 [K], tailcorrection: no
 CH_sp3 -    Cl4B [LENNARD_JONES] p_0/k_B:  49.22960 [K], p_1: 4.09466 [A], shift/k_B:  -0.31032724 [K], tailcorrection: no
 CH_sp3 -     C1C [LENNARD_JONES] p_0/k_B:  28.52289 [K], p_1: 4.07149 [A], shift/k_B:  -0.17379067 [K], tailcorrection: no
 CH_sp3 -     H1C [LENNARD_JONES] p_0/k_B:  11.40315 [K], p_1: 3.75821 [A], shift/k_B:  -0.04300051 [K], tailcorrection: no
 CH_sp3 -     N2C [LENNARD_JONES] p_0/k_B:  25.73201 [K], p_1: 3.96628 [A], shift/k_B:  -0.13402316 [K], tailcorrection: no
 CH_sp3 -     C3C [LENNARD_JONES] p_0/k_B:  28.52289 [K], p_1: 4.07149 [A], shift/k_B:  -0.17379067 [K], tailcorrection: no
 CH_sp3 -    Cl4C [LENNARD_JONES] p_0/k_B:  49.22960 [K], p_1: 4.09466 [A], shift/k_B:  -0.31032724 [K], tailcorrection: no
 CH_sp3 -     C1D [LENNARD_JONES] p_0/k_B:  28.52289 [K], p_1: 4.07149 [A], shift/k_B:  -0.17379067 [K], tailcorrection: no
 CH_sp3 -     H1D [LENNARD_JONES] p_0/k_B:  11.40315 [K], p_1: 3.75821 [A], shift/k_B:  -0.04300051 [K], tailcorrection: no
 CH_sp3 -     N2D [LENNARD_JONES] p_0/k_B:  25.73201 [K], p_1: 3.96628 [A], shift/k_B:  -0.13402316 [K], tailcorrection: no
 CH_sp3 -     C3D [LENNARD_JONES] p_0/k_B:  28.52289 [K], p_1: 4.07149 [A], shift/k_B:  -0.17379067 [K], tailcorrection: no
 CH_sp3 -    Cl4D [LENNARD_JONES] p_0/k_B:  49.22960 [K], p_1: 4.09466 [A], shift/k_B:  -0.31032724 [K], tailcorrection: no
  C_sp3 -   C_sp3 [LENNARD_JONES] p_0/k_B:   0.80000 [K], p_1: 6.38000 [A], shift/k_B:  -0.07064236 [K], tailcorrection: no
  C_sp3 -    H_h2 [ZERO_POTENTIAL]
  C_sp3 -   H_com [LENNARD_JONES] p_0/k_B:   5.41849 [K], p_1: 4.66900 [A], shift/k_B:  -0.07493495 [K], tailcorrection: no
  C_sp3 -   C_co2 [LENNARD_JONES] p_0/k_B:   4.89351 [K], p_1: 4.56250 [A], shift/k_B:  -0.05895165 [K], tailcorrection: no
  C_sp3 -   O_co2 [LENNARD_JONES] p_0/k_B:   8.27870 [K], p_1: 4.69850 [A], shift/k_B:  -0.11888367 [K], tailcorrection: no
  C_sp3 -    O_o2 [LENNARD_JONES] p_0/k_B:   6.20697 [K], p_1: 4.70657 [A], shift/k_B:  -0.09005301 [K], tailcorrection: no
  C_sp3 -   O_com [LENNARD_JONES] p_0/k_B:   6.20697 [K], p_1: 4.70657 [A], shift/k_B:  -0.09005301 [K], tailcorrection: no
  C_sp3 -    N_n2 [LENNARD_JONES] p_0/k_B:   5.53520 [K], p_1: 4.84300 [A], shift/k_B:  -0.09526024 [K], tailcorrection: no
  C_sp3 -   N_com [ZERO_POTENTIAL]
  C_sp3 -      Ar [LENNARD_JONES] p_0/k_B:   9.96273 [K], p_1: 4.88000 [A], shift/k_B:  -0.17943247 [K], tailcorrection: no
  C_sp3 -      Ow [LENNARD_JONES] p_0/k_B:   8.46796 [K], p_1: 4.73850 [A], shift/k_B:  -0.12792259 [K], tailcorrection: no
  C_sp3 -      Hw [LENNARD_JONES] p_0/k_B:   2.47369 [K], p_1: 4.61321 [A], shift/k_B:  -0.03183707 [K], tailcorrection: no
  C_sp3 -  C_benz [LENNARD_JONES] p_0/k_B:   4.95580 [K], p_1: 4.99000 [A], shift/k_B:  -0.10196209 [K], tailcorrection: no
  C_sp3 -  H_benz [LENNARD_JONES] p_0/k_B:   4.51221 [K], p_1: 4.37000 [A], shift/k_B:  -0.04199870 [K], tailcorrection: no
  C_sp3 -   N_dmf [LENNARD_JONES] p_0/k_B:   8.00000 [K], p_1: 4.79000 [A], shift/k_B:  -0.12891851 [K], tailcorrection: no
  C_sp3 -  Co_dmf [LENNARD_JONES] p_0/k_B:   6.32456 [K], p_1: 5.04000 [A], shift/k_B:  -0.13810052 [K], tailcorrection: no
  C_sp3 -  Cm_dmf [LENNARD_JONES] p_0/k_B:   8.00000 [K], p_1: 5.09000 [A], shift/k_B:  -0.18528168 [K], tailcorrection: no
  C_sp3 -   O_dmf [LENNARD_JONES] p_0/k_B:   8.94427 [K], p_1: 4.67000 [A], shift/k_B:  -0.12385327 [K], tailcorrection: no
  C_sp3 -   H_dmf [LENNARD_JONES] p_0/k_B:   2.52982 [K], p_1: 4.29000 [A], shift/k_B:  -0.02108136 [K], tailcorrection: no
  C_sp3 -      Na [LENNARD_JONES] p_0/k_B:   5.58206 [K], p_1: 4.82128 [A], shift/k_B:  -0.09352126 [K], tailcorrection: no
  C_sp3 -      Cl [LENNARD_JONES] p_0/k_B:  10.67940 [K], p_1: 4.94966 [A], shift/k_B:  -0.20932814 [K], tailcorrection: no
  C_sp3 -      Kr [LENNARD_JONES] p_0/k_B:  11.53776 [K], p_1: 5.00800 [A], shift/k_B:  -0.24253786 [K], tailcorrection: no
  C_sp3 -      Xe [LENNARD_JONES] p_0/k_B:  13.29662 [K], p_1: 5.24000 [A], shift/k_B:  -0.36616773 [K], tailcorrection: no
  C_sp3 -     Zn1 [LENNARD_JONES] p_0/k_B:   7.06536 [K], p_1: 4.42077 [A], shift/k_B:  -0.07047101 [K], tailcorrection: no
  C_sp3 -     C1A [LENNARD_JONES] p_0/k_B:   6.18748 [K], p_1: 4.92650 [A], shift/k_B:  -0.11793170 [K], tailcorrection: no
  C_sp3 -     H1A [LENNARD_JONES] p_0/k_B:   2.47369 [K], p_1: 4.61321 [A], shift/k_B:  -0.03183707 [K], tailcorrection: no
  C_sp3 -     N2A [LENNARD_JONES] p_0/k_B:   5.58206 [K], p_1: 4.82128 [A], shift/k_B:  -0.09352126 [K], tailcorrection: no
  C_sp3 -     C3A [LENNARD_JONES] p_0/k_B:   6.18748 [K], p_1: 4.92650 [A], shift/k_B:  -0.11793170 [K], tailcorrection: no
  C_sp3 -    Cl4A [LENNARD_JONES] p_0/k_B:  10.67940 [K], p_1: 4.94966 [A], shift/k_B:  -0.20932814 [K], tailcorrection: no
  C_sp3 -     C1B [LENNARD_JONES] p_0/k_B:   6.18748 [K], p_1: 4.92650 [A], shift/k_B:  -0.11793170 [K], tailcorrection: no
  C_sp3 -     H1B [LENNARD_JONES] p_0/k_B:   2.47369 [K], p_1: 4.61321 [A], shift/k_B:  -0.03183707 [K], tailcorrection: no
  C_sp3 -     N2B [LENNARD_JONES] p_0/k_B:   5.58206 [K], p_1: 4.82128 [A], shift/k_B:  -0.09352126 [K], tailcorrection: no
  C_sp3 -     C3B [LENNARD_JONES] p_0/k_B:   6.18748 [K], p_1: 4.92650 [A], shift/k_B:  -0.11793170 [K], tailcorrection: no
  C_sp3 -    Cl4B [LENNARD_JONES] p_0/k_B:  10.67940 [K], p_1: 4.94966 [A], shift/k_B:  -0.20932814 [K], tailcorrection: no
  C_sp3 -     C1C [LENNARD_JONES] p_0/k_B:   6.18748 [K], p_1: 4.92650 [A], shift/k_B:  -0.11793170 [K], tailcorrection: no
  C_sp3 -     H1C [LENNARD_JONES] p_0/k_B:   2.47369 [K], p_1: 4.61321 [A], shift/k_B:  -0.03183707 [K], tailcorrection: no
  C_sp3 -     N2C [LENNARD_JONES] p_0/k_B:   5.58206 [K], p_1: 4.82128 [A], shift/k_B:  -0.09352126 [K], tailcorrection: no
  C_sp3 -     C3C [LENNARD_JONES] p_0/k_B:   6.18748 [K], p_1: 4.92650 [A], shift/k_B:  -0.11793170 [K], tailcorrection: no
  C_sp3 -    Cl4C [LENNARD_JONES] p_0/k_B:  10.67940 [K], p_1: 4.94966 [A], shift/k_B:  -0.20932814 [K], tailcorrection: no
  C_sp3 -     C1D [LENNARD_JONES] p_0/k_B:   6.18748 [K], p_1: 4.92650 [A], shift/k_B:  -0.11793170 [K], tailcorrection: no
  C_sp3 -     H1D [LENNARD_JONES] p_0/k_B:   2.47369 [K], p_1: 4.61321 [A], shift/k_B:  -0.03183707 [K], tailcorrection: no
  C_sp3 -     N2D [LENNARD_JONES] p_0/k_B:   5.58206 [K], p_1: 4.82128 [A], shift/k_B:  -0.09352126 [K], tailcorrection: no
  C_sp3 -     C3D [LENNARD_JONES] p_0/k_B:   6.18748 [K], p_1: 4.92650 [A], shift/k_B:  -0.11793170 [K], tailcorrection: no
  C_sp3 -    Cl4D [LENNARD_JONES] p_0/k_B:  10.67940 [K], p_1: 4.94966 [A], shift/k_B:  -0.20932814 [K], tailcorrection: no
   H_h2 -    H_h2 [ZERO_POTENTIAL]
   H_h2 -   H_com [ZERO_POTENTIAL]
   H_h2 -   C_co2 [ZERO_POTENTIAL]
   H_h2 -   O_co2 [ZERO_POTENTIAL]
   H_h2 -    O_o2 [ZERO_POTENTIAL]
   H_h2 -   O_com [ZERO_POTENTIAL]
   H_h2 -    N_n2 [ZERO_POTENTIAL]
   H_h2 -   N_com [ZERO_POTENTIAL]
   H_h2 -      Ar [ZERO_POTENTIAL]
   H_h2 -      Ow [ZERO_POTENTIAL]
   H_h2 -      Hw [ZERO_POTENTIAL]
   H_h2 -      Lw [ZERO_POTENTIAL]
   H_h2 -  C_benz [ZERO_POTENTIAL]
   H_h2 -  H_benz [ZERO_POTENTIAL]
   H_h2 -   N_dmf [ZERO_POTENTIAL]
   H_h2 -  Co_dmf [ZERO_POTENTIAL]
   H_h2 -  Cm_dmf [ZERO_POTENTIAL]
   H_h2 -   O_dmf [ZERO_POTENTIAL]
   H_h2 -   H_dmf [ZERO_POTENTIAL]
   H_h2 -      Na [ZERO_POTENTIAL]
   H_h2 -      Cl [ZERO_POTENTIAL]
   H_h2 -      Kr [ZERO_POTENTIAL]
   H_h2 -      Xe [ZERO_POTENTIAL]
   H_h2 -     Zn1 [ZERO_POTENTIAL]
   H_h2 -     C1A [ZERO_POTENTIAL]
   H_h2 -     H1A [ZERO_POTENTIAL]
   H_h2 -     N2A [ZERO_POTENTIAL]
   H_h2 -     C3A [ZERO_POTENTIAL]
   H_h2 -    Cl4A [ZERO_POTENTIAL]
   H_h2 -     C1B [ZERO_POTENTIAL]
   H_h2 -     H1B [ZERO_POTENTIAL]
   H_h2 -     N2B [ZERO_POTENTIAL]
   H_h2 -     C3B [ZERO_POTENTIAL]
   H_h2 -    Cl4B [ZERO_POTENTIAL]
   H_h2 -     C1C [ZERO_POTENTIAL]
   H_h2 -     H1C [ZERO_POTENTIAL]
   H_h2 -     N2C [ZERO_POTENTIAL]
   H_h2 -     C3C [ZERO_POTENTIAL]
   H_h2 -    Cl4C [ZERO_POTENTIAL]
   H_h2 -     C1D [ZERO_POTENTIAL]
   H_h2 -     H1D [ZERO_POTENTIAL]
   H_h2 -     N2D [ZERO_POTENTIAL]
   H_h2 -     C3D [ZERO_POTENTIAL]
   H_h2 -    Cl4D [ZERO_POTENTIAL]
  H_com -   H_com [LENNARD_JONES] p_0/k_B:  36.70000 [K], p_1: 2.95800 [A], shift/k_B:  -0.03292533 [K], tailcorrection: no
  H_com -   C_co2 [LENNARD_JONES] p_0/k_B:  33.14425 [K], p_1: 2.85150 [A], shift/k_B:  -0.02386397 [K], tailcorrection: no
  H_com -   O_co2 [LENNARD_JONES] p_0/k_B:  56.07250 [K], p_1: 2.98750 [A], shift/k_B:  -0.05339081 [K], tailcorrection: no
  H_com -    O_o2 [LENNARD_JONES] p_0/k_B:  42.04048 [K], p_1: 2.99558 [A], shift/k_B:  -0.04068331 [K], tailcorrection: no
  H_com -   O_com [LENNARD_JONES] p_0/k_B:  42.04048 [K], p_1: 2.99558 [A], shift/k_B:  -0.04068331 [K], tailcorrection: no
  H_com -    N_n2 [LENNARD_JONES] p_0/k_B:  37.49049 [K], p_1: 3.13200 [A], shift/k_B:  -0.04739001 [K], tailcorrection: no
  H_com -   N_com [ZERO_POTENTIAL]
  H_com -      Ar [LENNARD_JONES] p_0/k_B:  67.47866 [K], p_1: 3.16900 [A], shift/k_B:  -0.09152190 [K], tailcorrection: no
  H_com -      Ow [LENNARD_JONES] p_0/k_B:  57.35443 [K], p_1: 3.02750 [A], shift/k_B:  -0.05914696 [K], tailcorrection: no
  H_com -      Hw [LENNARD_JONES] p_0/k_B:  16.75457 [K], p_1: 2.90221 [A], shift/k_B:  -0.01340886 [K], tailcorrection: no
  H_com -  C_benz [LENNARD_JONES] p_0/k_B:  33.56620 [K], p_1: 3.27900 [A], shift/k_B:  -0.05586534 [K], tailcorrection: no
  H_com -  H_benz [LENNARD_JONES] p_0/k_B:  30.56166 [K], p_1: 2.65900 [A], shift/k_B:  -0.01446799 [K], tailcorrection: no
  H_com -   N_dmf [LENNARD_JONES] p_0/k_B:  54.18487 [K], p_1: 3.07900 [A], shift/k_B:  -0.06182793 [K], tailcorrection: no
  H_com -  Co_dmf [LENNARD_JONES] p_0/k_B:  42.83690 [K], p_1: 3.32900 [A], shift/k_B:  -0.07806841 [K], tailcorrection: no
  H_com -  Cm_dmf [LENNARD_JONES] p_0/k_B:  54.18487 [K], p_1: 3.37900 [A], shift/k_B:  -0.10798493 [K], tailcorrection: no
  H_com -   O_dmf [LENNARD_JONES] p_0/k_B:  60.58052 [K], p_1: 2.95900 [A], shift/k_B:  -0.05446001 [K], tailcorrection: no
  H_com -   H_dmf [LENNARD_JONES] p_0/k_B:  17.13476 [K], p_1: 2.57900 [A], shift/k_B:  -0.00675330 [K], tailcorrection: no
  H_com -      Na [LENNARD_JONES] p_0/k_B:  37.80788 [K], p_1: 3.11028 [A], shift/k_B:  -0.04583741 [K], tailcorrection: no
  H_com -      Cl [LENNARD_JONES] p_0/k_B:  72.33274 [K], p_1: 3.23866 [A], shift/k_B:  -0.11177166 [K], tailcorrection: no
  H_com -      Kr [LENNARD_JONES] p_0/k_B:  78.14653 [K], p_1: 3.29700 [A], shift/k_B:  -0.13440302 [K], tailcorrection: no
  H_com -      Xe [LENNARD_JONES] p_0/k_B:  90.05942 [K], p_1: 3.52900 [A], shift/k_B:  -0.23287915 [K], tailcorrection: no
  H_com -     Zn1 [LENNARD_JONES] p_0/k_B:  47.85447 [K], p_1: 2.70978 [A], shift/k_B:  -0.02537680 [K], tailcorrection: no
  H_com -     C1A [LENNARD_JONES] p_0/k_B:  41.90850 [K], p_1: 3.21549 [A], shift/k_B:  -0.06202987 [K], tailcorrection: no
  H_com -     H1A [LENNARD_JONES] p_0/k_B:  16.75457 [K], p_1: 2.90221 [A], shift/k_B:  -0.01340886 [K], tailcorrection: no
  H_com -     N2A [LENNARD_JONES] p_0/k_B:  37.80788 [K], p_1: 3.11028 [A], shift/k_B:  -0.04583741 [K], tailcorrection: no
  H_com -     C3A [LENNARD_JONES] p_0/k_B:  41.90850 [K], p_1: 3.21549 [A], shift/k_B:  -0.06202987 [K], tailcorrection: no
  H_com -    Cl4A [LENNARD_JONES] p_0/k_B:  72.33274 [K], p_1: 3.23866 [A], shift/k_B:  -0.11177166 [K], tailcorrection: no
  H_com -     C1B [LENNARD_JONES] p_0/k_B:  41.90850 [K], p_1: 3.21549 [A], shift/k_B:  -0.06202987 [K], tailcorrection: no
  H_com -     H1B [LENNARD_JONES] p_0/k_B:  16.75457 [K], p_1: 2.90221 [A], shift/k_B:  -0.01340886 [K], tailcorrection: no
  H_com -     N2B [LENNARD_JONES] p_0/k_B:  37.80788 [K], p_1: 3.11028 [A], shift/k_B:  -0.04583741 [K], tailcorrection: no
  H_com -     C3B [LENNARD_JONES] p_0/k_B:  41.90850 [K], p_1: 3.21549 [A], shift/k_B:  -0.06202987 [K], tailcorrection: no
  H_com -    Cl4B [LENNARD_JONES] p_0/k_B:  72.33274 [K], p_1: 3.23866 [A], shift/k_B:  -0.11177166 [K], tailcorrection: no
  H_com -     C1C [LENNARD_JONES] p_0/k_B:  41.90850 [K], p_1: 3.21549 [A], shift/k_B:  -0.06202987 [K], tailcorrection: no
  H_com -     H1C [LENNARD_JONES] p_0/k_B:  16.75457 [K], p_1: 2.90221 [A], shift/k_B:  -0.01340886 [K], tailcorrection: no
  H_com -     N2C [LENNARD_JONES] p_0/k_B:  37.80788 [K], p_1: 3.11028 [A], shift/k_B:  -0.04583741 [K], tailcorrection: no
  H_com -     C3C [LENNARD_JONES] p_0/k_B:  41.90850 [K], p_1: 3.21549 [A], shift/k_B:  -0.06202987 [K], tailcorrection: no
  H_com -    Cl4C [LENNARD_JONES] p_0/k_B:  72.33274 [K], p_1: 3.23866 [A], shift/k_B:  -0.11177166 [K], tailcorrection: no
  H_com -     C1D [LENNARD_JONES] p_0/k_B:  41.90850 [K], p_1: 3.21549 [A], shift/k_B:  -0.06202987 [K], tailcorrection: no
  H_com -     H1D [LENNARD_JONES] p_0/k_B:  16.75457 [K], p_1: 2.90221 [A], shift/k_B:  -0.01340886 [K], tailcorrection: no
  H_com -     N2D [LENNARD_JONES] p_0/k_B:  37.80788 [K], p_1: 3.11028 [A], shift/k_B:  -0.04583741 [K], tailcorrection: no
  H_com -     C3D [LENNARD_JONES] p_0/k_B:  41.90850 [K], p_1: 3.21549 [A], shift/k_B:  -0.06202987 [K], tailcorrection: no
  H_com -    Cl4D [LENNARD_JONES] p_0/k_B:  72.33274 [K], p_1: 3.23866 [A], shift/k_B:  -0.11177166 [K], tailcorrection: no
  C_co2 -   C_co2 [LENNARD_JONES] p_0/k_B:  29.93300 [K], p_1: 2.74500 [A], shift/k_B:  -0.01715199 [K], tailcorrection: no
  C_co2 -   O_co2 [LENNARD_JONES] p_0/k_B:  50.63981 [K], p_1: 2.88100 [A], shift/k_B:  -0.03878296 [K], tailcorrection: no
  C_co2 -    O_o2 [LENNARD_JONES] p_0/k_B:  37.96731 [K], p_1: 2.88908 [A], shift/k_B:  -0.02956995 [K], tailcorrection: no
  C_co2 -   O_com [LENNARD_JONES] p_0/k_B:  37.96731 [K], p_1: 2.88908 [A], shift/k_B:  -0.02956995 [K], tailcorrection: no
  C_co2 -    N_n2 [LENNARD_JONES] p_0/k_B:  33.85815 [K], p_1: 3.02550 [A], shift/k_B:  -0.03477820 [K], tailcorrection: no
  C_co2 -   N_com [ZERO_POTENTIAL]
  C_co2 -      Ar [LENNARD_JONES] p_0/k_B:  60.94085 [K], p_1: 3.06250 [A], shift/k_B:  -0.06733139 [K], tailcorrection: no
  C_co2 -      Ow [LENNARD_JONES] p_0/k_B:  51.79753 [K], p_1: 2.92100 [A], shift/k_B:  -0.04309041 [K], tailcorrection: no
  C_co2 -      Hw [LENNARD_JONES] p_0/k_B:  15.13127 [K], p_1: 2.79571 [A], shift/k_B:  -0.00967679 [K], tailcorrection: no
  C_co2 -  C_benz [LENNARD_JONES] p_0/k_B:  30.31407 [K], p_1: 3.17250 [A], shift/k_B:  -0.04138837 [K], tailcorrection: no
  C_co2 -  H_benz [LENNARD_JONES] p_0/k_B:  27.60063 [K], p_1: 2.55250 [A], shift/k_B:  -0.01022459 [K], tailcorrection: no
  C_co2 -   N_dmf [LENNARD_JONES] p_0/k_B:  48.93506 [K], p_1: 2.97250 [A], shift/k_B:  -0.04520885 [K], tailcorrection: no
  C_co2 -  Co_dmf [LENNARD_JONES] p_0/k_B:  38.68656 [K], p_1: 3.22250 [A], shift/k_B:  -0.05801326 [K], tailcorrection: no
  C_co2 -  Cm_dmf [LENNARD_JONES] p_0/k_B:  48.93506 [K], p_1: 3.27250 [A], shift/k_B:  -0.08048073 [K], tailcorrection: no
  C_co2 -   O_dmf [LENNARD_JONES] p_0/k_B:  54.71106 [K], p_1: 2.85250 [A], shift/k_B:  -0.03947510 [K], tailcorrection: no
  C_co2 -   H_dmf [LENNARD_JONES] p_0/k_B:  15.47462 [K], p_1: 2.47250 [A], shift/k_B:  -0.00473562 [K], tailcorrection: no
  C_co2 -      Na [LENNARD_JONES] p_0/k_B:  34.14479 [K], p_1: 3.00378 [A], shift/k_B:  -0.03358913 [K], tailcorrection: no
  C_co2 -      Cl [LENNARD_JONES] p_0/k_B:  65.32464 [K], p_1: 3.13216 [A], shift/k_B:  -0.08259919 [K], tailcorrection: no
  C_co2 -      Kr [LENNARD_JONES] p_0/k_B:  70.57515 [K], p_1: 3.19050 [A], shift/k_B:  -0.09968352 [K], tailcorrection: no
  C_co2 -      Xe [LENNARD_JONES] p_0/k_B:  81.33384 [K], p_1: 3.42250 [A], shift/k_B:  -0.17501316 [K], tailcorrection: no
  C_co2 -     Zn1 [LENNARD_JONES] p_0/k_B:  43.21800 [K], p_1: 2.60328 [A], shift/k_B:  -0.01801823 [K], tailcorrection: no
  C_co2 -     C1A [LENNARD_JONES] p_0/k_B:  37.84811 [K], p_1: 3.10900 [A], shift/k_B:  -0.04577259 [K], tailcorrection: no
  C_co2 -     H1A [LENNARD_JONES] p_0/k_B:  15.13127 [K], p_1: 2.79571 [A], shift/k_B:  -0.00967679 [K], tailcorrection: no
  C_co2 -     N2A [LENNARD_JONES] p_0/k_B:  34.14479 [K], p_1: 3.00378 [A], shift/k_B:  -0.03358913 [K], tailcorrection: no
  C_co2 -     C3A [LENNARD_JONES] p_0/k_B:  37.84811 [K], p_1: 3.10900 [A], shift/k_B:  -0.04577259 [K], tailcorrection: no
  C_co2 -    Cl4A [LENNARD_JONES] p_0/k_B:  65.32464 [K], p_1: 3.13216 [A], shift/k_B:  -0.08259919 [K], tailcorrection: no
  C_co2 -     C1B [LENNARD_JONES] p_0/k_B:  37.84811 [K], p_1: 3.10900 [A], shift/k_B:  -0.04577259 [K], tailcorrection: no
  C_co2 -     H1B [LENNARD_JONES] p_0/k_B:  15.13127 [K], p_1: 2.79571 [A], shift/k_B:  -0.00967679 [K], tailcorrection: no
  C_co2 -     N2B [LENNARD_JONES] p_0/k_B:  34.14479 [K], p_1: 3.00378 [A], shift/k_B:  -0.03358913 [K], tailcorrection: no
  C_co2 -     C3B [LENNARD_JONES] p_0/k_B:  37.84811 [K], p_1: 3.10900 [A], shift/k_B:  -0.04577259 [K], tailcorrection: no
  C_co2 -    Cl4B [LENNARD_JONES] p_0/k_B:  65.32464 [K], p_1: 3.13216 [A], shift/k_B:  -0.08259919 [K], tailcorrection: no
  C_co2 -     C1C [LENNARD_JONES] p_0/k_B:  37.84811 [K], p_1: 3.10900 [A], shift/k_B:  -0.04577259 [K], tailcorrection: no
  C_co2 -     H1C [LENNARD_JONES] p_0/k_B:  15.13127 [K], p_1: 2.79571 [A], shift/k_B:  -0.00967679 [K], tailcorrection: no
  C_co2 -     N2C [LENNARD_JONES] p_0/k_B:  34.14479 [K], p_1: 3.00378 [A], shift/k_B:  -0.03358913 [K], tailcorrection: no
  C_co2 -     C3C [LENNARD_JONES] p_0/k_B:  37.84811 [K], p_1: 3.10900 [A], shift/k_B:  -0.04577259 [K], tailcorrection: no
  C_co2 -    Cl4C [LENNARD_JONES] p_0/k_B:  65.32464 [K], p_1: 3.13216 [A], shift/k_B:  -0.08259919 [K], tailcorrection: no
  C_co2 -     C1D [LENNARD_JONES] p_0/k_B:  37.84811 [K], p_1: 3.10900 [A], shift/k_B:  -0.04577259 [K], tailcorrection: no
  C_co2 -     H1D [LENNARD_JONES] p_0/k_B:  15.13127 [K], p_1: 2.79571 [A], shift/k_B:  -0.00967679 [K], tailcorrection: no
  C_co2 -     N2D [LENNARD_JONES] p_0/k_B:  34.14479 [K], p_1: 3.00378 [A], shift/k_B:  -0.03358913 [K], tailcorrection: no
  C_co2 -     C3D [LENNARD_JONES] p_0/k_B:  37.84811 [K], p_1: 3.10900 [A], shift/k_B:  -0.04577259 [K], tailcorrection: no
  C_co2 -    Cl4D [LENNARD_JONES] p_0/k_B:  65.32464 [K], p_1: 3.13216 [A], shift/k_B:  -0.08259919 [K], tailcorrection: no
  O_co2 -   O_co2 [LENNARD_JONES] p_0/k_B:  85.67100 [K], p_1: 3.01700 [A], shift/k_B:  -0.08652638 [K], tailcorrection: no
  O_co2 -    O_o2 [LENNARD_JONES] p_0/k_B:  64.23202 [K], p_1: 3.02508 [A], shift/k_B:  -0.06592187 [K], tailcorrection: no
  O_co2 -   O_com [LENNARD_JONES] p_0/k_B:  64.23202 [K], p_1: 3.02508 [A], shift/k_B:  -0.06592187 [K], tailcorrection: no
  O_co2 -    N_n2 [LENNARD_JONES] p_0/k_B:  57.28026 [K], p_1: 3.16150 [A], shift/k_B:  -0.07659340 [K], tailcorrection: no
  O_co2 -   N_com [ZERO_POTENTIAL]
  O_co2 -      Ar [LENNARD_JONES] p_0/k_B: 103.09802 [K], p_1: 3.19850 [A], shift/k_B:  -0.14782408 [K], tailcorrection: no
  O_co2 -      Ow [LENNARD_JONES] p_0/k_B:  87.62961 [K], p_1: 3.05700 [A], shift/k_B:  -0.09578055 [K], tailcorrection: no
  O_co2 -      Hw [LENNARD_JONES] p_0/k_B:  25.59866 [K], p_1: 2.93171 [A], shift/k_B:  -0.02176825 [K], tailcorrection: no
  O_co2 -  C_benz [LENNARD_JONES] p_0/k_B:  51.28450 [K], p_1: 3.30850 [A], shift/k_B:  -0.09006471 [K], tailcorrection: no
  O_co2 -  H_benz [LENNARD_JONES] p_0/k_B:  46.69397 [K], p_1: 2.68850 [A], shift/k_B:  -0.02361776 [K], tailcorrection: no
  O_co2 -   N_dmf [LENNARD_JONES] p_0/k_B:  82.78696 [K], p_1: 3.10850 [A], shift/k_B:  -0.10002497 [K], tailcorrection: no
  O_co2 -  Co_dmf [LENNARD_JONES] p_0/k_B:  65.44883 [K], p_1: 3.35850 [A], shift/k_B:  -0.12575862 [K], tailcorrection: no
  O_co2 -  Cm_dmf [LENNARD_JONES] p_0/k_B:  82.78696 [K], p_1: 3.40850 [A], shift/k_B:  -0.17381453 [K], tailcorrection: no
  O_co2 -   O_dmf [LENNARD_JONES] p_0/k_B:  92.55863 [K], p_1: 2.98850 [A], shift/k_B:  -0.08830908 [K], tailcorrection: no
  O_co2 -   H_dmf [LENNARD_JONES] p_0/k_B:  26.17953 [K], p_1: 2.60850 [A], shift/k_B:  -0.01104673 [K], tailcorrection: no
  O_co2 -      Na [LENNARD_JONES] p_0/k_B:  57.76519 [K], p_1: 3.13978 [A], shift/k_B:  -0.07411304 [K], tailcorrection: no
  O_co2 -      Cl [LENNARD_JONES] p_0/k_B: 110.51438 [K], p_1: 3.26816 [A], shift/k_B:  -0.18031586 [K], tailcorrection: no
  O_co2 -      Kr [LENNARD_JONES] p_0/k_B: 119.39705 [K], p_1: 3.32650 [A], shift/k_B:  -0.21661780 [K], tailcorrection: no
  O_co2 -      Xe [LENNARD_JONES] p_0/k_B: 137.59830 [K], p_1: 3.55850 [A], shift/k_B:  -0.37401754 [K], tailcorrection: no
  O_co2 -     Zn1 [LENNARD_JONES] p_0/k_B:  73.11499 [K], p_1: 2.73928 [A], shift/k_B:  -0.04137436 [K], tailcorrection: no
  O_co2 -     C1A [LENNARD_JONES] p_0/k_B:  64.03037 [K], p_1: 3.24499 [A], shift/k_B:  -0.10010894 [K], tailcorrection: no
  O_co2 -     H1A [LENNARD_JONES] p_0/k_B:  25.59866 [K], p_1: 2.93171 [A], shift/k_B:  -0.02176825 [K], tailcorrection: no
  O_co2 -     N2A [LENNARD_JONES] p_0/k_B:  57.76519 [K], p_1: 3.13978 [A], shift/k_B:  -0.07411304 [K], tailcorrection: no
  O_co2 -     C3A [LENNARD_JONES] p_0/k_B:  64.03037 [K], p_1: 3.24499 [A], shift/k_B:  -0.10010894 [K], tailcorrection: no
  O_co2 -    Cl4A [LENNARD_JONES] p_0/k_B: 110.51438 [K], p_1: 3.26816 [A], shift/k_B:  -0.18031586 [K], tailcorrection: no
  O_co2 -     C1B [LENNARD_JONES] p_0/k_B:  64.03037 [K], p_1: 3.24499 [A], shift/k_B:  -0.10010894 [K], tailcorrection: no
  O_co2 -     H1B [LENNARD_JONES] p_0/k_B:  25.59866 [K], p_1: 2.93171 [A], shift/k_B:  -0.02176825 [K], tailcorrection: no
  O_co2 -     N2B [LENNARD_JONES] p_0/k_B:  57.76519 [K], p_1: 3.13978 [A], shift/k_B:  -0.07411304 [K], tailcorrection: no
  O_co2 -     C3B [LENNARD_JONES] p_0/k_B:  64.03037 [K], p_1: 3.24499 [A], shift/k_B:  -0.10010894 [K], tailcorrection: no
  O_co2 -    Cl4B [LENNARD_JONES] p_0/k_B: 110.51438 [K], p_1: 3.26816 [A], shift/k_B:  -0.18031586 [K], tailcorrection: no
  O_co2 -     C1C [LENNARD_JONES] p_0/k_B:  64.03037 [K], p_1: 3.24499 [A], shift/k_B:  -0.10010894 [K], tailcorrection: no
  O_co2 -     H1C [LENNARD_JONES] p_0/k_B:  25.59866 [K], p_1: 2.93171 [A], shift/k_B:  -0.02176825 [K], tailcorrection: no
  O_co2 -     N2C [LENNARD_JONES] p_0/k_B:  57.76519 [K], p_1: 3.13978 [A], shift/k_B:  -0.07411304 [K], tailcorrection: no
  O_co2 -     C3C [LENNARD_JONES] p_0/k_B:  64.03037 [K], p_1: 3.24499 [A], shift/k_B:  -0.10010894 [K], tailcorrection: no
  O_co2 -    Cl4C [LENNARD_JONES] p_0/k_B: 110.51438 [K], p_1: 3.26816 [A], shift/k_B:  -0.18031586 [K], tailcorrection: no
[...]

Average Cation Torsion energy:
==============================
	Block[ 0]            0.00000 [K]
	Block[ 1]            0.00000 [K]
	Block[ 2]            0.00000 [K]
	Block[ 3]            0.00000 [K]
	Block[ 4]            0.00000 [K]
	------------------------------------------------------------------------------
	Average              0.00000 [K] +/-            0.00000 [K]

Average Cation Improper Torsion energy:
=======================================
	Block[ 0]            0.00000 [K]
	Block[ 1]            0.00000 [K]
	Block[ 2]            0.00000 [K]
	Block[ 3]            0.00000 [K]
	Block[ 4]            0.00000 [K]
	------------------------------------------------------------------------------
	Average              0.00000 [K] +/-            0.00000 [K]

Average Cation Bond-Bond cross term energy:
=================================================
	Block[ 0]            0.00000 [K]
	Block[ 1]            0.00000 [K]
	Block[ 2]            0.00000 [K]
	Block[ 3]            0.00000 [K]
	Block[ 4]            0.00000 [K]
	------------------------------------------------------------------------------
	Average              0.00000 [K] +/-            0.00000 [K]

Average Cation Bend-Bend cross term energy:
===========================================
	Block[ 0]            0.00000 [K]
	Block[ 1]            0.00000 [K]
	Block[ 2]            0.00000 [K]
	Block[ 3]            0.00000 [K]
	Block[ 4]            0.00000 [K]
	------------------------------------------------------------------------------
	Average              0.00000 [K] +/-            0.00000 [K]

Average Cation Bond-Bend cross term energy:
==============================================
	Block[ 0]            0.00000 [K]
	Block[ 1]            0.00000 [K]
	Block[ 2]            0.00000 [K]
	Block[ 3]            0.00000 [K]
	Block[ 4]            0.00000 [K]
	------------------------------------------------------------------------------
	Average              0.00000 [K] +/-            0.00000 [K]

Average Cation Bond-Torsion cross term energy:
==============================================
	Block[ 0]            0.00000 [K]
	Block[ 1]            0.00000 [K]
	Block[ 2]            0.00000 [K]
	Block[ 3]            0.00000 [K]
	Block[ 4]            0.00000 [K]
	------------------------------------------------------------------------------
	Average              0.00000 [K] +/-            0.00000 [K]

Average Cation Bend-Torsion cross term energy:
==============================================
	Block[ 0]            0.00000 [K]
	Block[ 1]            0.00000 [K]
	Block[ 2]            0.00000 [K]
	Block[ 3]            0.00000 [K]
	Block[ 4]            0.00000 [K]
	------------------------------------------------------------------------------
	Average              0.00000 [K] +/-            0.00000 [K]

Average Cation Intra Van der Waals energy:
==========================================
	Block[ 0]            0.00000 [K]
	Block[ 1]            0.00000 [K]
	Block[ 2]            0.00000 [K]
	Block[ 3]            0.00000 [K]
	Block[ 4]            0.00000 [K]
	------------------------------------------------------------------------------
	Average              0.00000 [K] +/-            0.00000 [K]

Average Cation Intra charge-charge Coulomb energy:
====================================
	Block[ 0]            0.00000 [K]
	Block[ 1]            0.00000 [K]
	Block[ 2]            0.00000 [K]
	Block[ 3]            0.00000 [K]
	Block[ 4]            0.00000 [K]
	------------------------------------------------------------------------------
	Average              0.00000 [K] +/-            0.00000 [K]

Average Cation Intra charge-bonddipole Coulomb energy:
====================================
	Block[ 0]            0.00000 [K]
	Block[ 1]            0.00000 [K]
	Block[ 2]            0.00000 [K]
	Block[ 3]            0.00000 [K]
	Block[ 4]            0.00000 [K]
	------------------------------------------------------------------------------
	Average              0.00000 [K] +/-            0.00000 [K]

Average Cation Intra bonddipole-bonddipole Coulomb energy:
====================================
	Block[ 0]            0.00000 [K]
	Block[ 1]            0.00000 [K]
	Block[ 2]            0.00000 [K]
	Block[ 3]            0.00000 [K]
	Block[ 4]            0.00000 [K]
	------------------------------------------------------------------------------
	Average              0.00000 [K] +/-            0.00000 [K]

Average Host-Host energy:
=========================
	Block[ 0] 0.00000            Van der Waals: 0.00000            Coulomb: 0.00000            [K]
	Block[ 1] 0.00000            Van der Waals: 0.00000            Coulomb: 0.00000            [K]
	Block[ 2] 0.00000            Van der Waals: 0.00000            Coulomb: 0.00000            [K]
	Block[ 3] 0.00000            Van der Waals: 0.00000            Coulomb: 0.00000            [K]
	Block[ 4] 0.00000            Van der Waals: 0.00000            Coulomb: 0.00000            [K]
	------------------------------------------------------------------------------
	Average   0.00000            Van der Waals: 0.000000           Coulomb: 0.00000            [K]
	      +/- 0.00000                       +/- 0.000000                +/- 0.00000            [K]

Average Adsorbate-Adsorbate energy:
===================================
	Block[ 0] 0.00000            Van der Waals: 0.00000            Coulomb: 0.00000            [K]
	Block[ 1] 0.00000            Van der Waals: 0.00000            Coulomb: 0.00000            [K]
	Block[ 2] 0.00000            Van der Waals: 0.00000            Coulomb: 0.00000            [K]
	Block[ 3] 0.00000            Van der Waals: 0.00000            Coulomb: 0.00000            [K]
	Block[ 4] 0.00000            Van der Waals: 0.00000            Coulomb: 0.00000            [K]
	------------------------------------------------------------------------------
	Average   0.00000            Van der Waals: 0.000000           Coulomb: 0.00000            [K]
	      +/- 0.00000                       +/- 0.000000                +/- 0.00000            [K]

Average Cation-Cation energy:
=============================
	Block[ 0] 0.00000            Van der Waals: 0.00000            Coulomb: 0.00000            [K]
	Block[ 1] 0.00000            Van der Waals: 0.00000            Coulomb: 0.00000            [K]
	Block[ 2] 0.00000            Van der Waals: 0.00000            Coulomb: 0.00000            [K]
	Block[ 3] 0.00000            Van der Waals: 0.00000            Coulomb: 0.00000            [K]
	Block[ 4] 0.00000            Van der Waals: 0.00000            Coulomb: 0.00000            [K]
	------------------------------------------------------------------------------
	Average   0.00000            Van der Waals: 0.000000           Coulomb: 0.00000            [K]
	      +/- 0.00000                       +/- 0.000000                +/- 0.00000            [K]

Average Host-Adsorbate energy:
==============================
	Block[ 0] 0.00000            Van der Waals: 0.00000            Coulomb: 0.00000            [K]
	Block[ 1] 0.00000            Van der Waals: 0.00000            Coulomb: 0.00000            [K]
	Block[ 2] 0.00000            Van der Waals: 0.00000            Coulomb: 0.00000            [K]
	Block[ 3] 0.00000            Van der Waals: 0.00000            Coulomb: 0.00000            [K]
	Block[ 4] 0.00000            Van der Waals: 0.00000            Coulomb: 0.00000            [K]
	------------------------------------------------------------------------------
	Average   0.00000            Van der Waals: 0.000000           Coulomb: 0.00000            [K]
	      +/- 0.00000                       +/- 0.000000                +/- 0.00000            [K]

Average Host-Cation energy:
===========================
	Block[ 0] 0.00000            Van der Waals: 0.00000            Coulomb: 0.00000            [K]
	Block[ 1] 0.00000            Van der Waals: 0.00000            Coulomb: 0.00000            [K]
	Block[ 2] 0.00000            Van der Waals: 0.00000            Coulomb: 0.00000            [K]
	Block[ 3] 0.00000            Van der Waals: 0.00000            Coulomb: 0.00000            [K]
	Block[ 4] 0.00000            Van der Waals: 0.00000            Coulomb: 0.00000            [K]
	------------------------------------------------------------------------------
	Average   0.00000            Van der Waals: 0.000000           Coulomb: 0.00000            [K]
	      +/- 0.00000                       +/- 0.000000                +/- 0.00000            [K]

Average Adsorbate-Cation energy:
================================
	Block[ 0] 0.00000            Van der Waals: 0.00000            Coulomb: 0.00000            [K]
	Block[ 1] 0.00000            Van der Waals: 0.00000            Coulomb: 0.00000            [K]
	Block[ 2] 0.00000            Van der Waals: 0.00000            Coulomb: 0.00000            [K]
	Block[ 3] 0.00000            Van der Waals: 0.00000            Coulomb: 0.00000            [K]
	Block[ 4] 0.00000            Van der Waals: 0.00000            Coulomb: 0.00000            [K]
	------------------------------------------------------------------------------
	Average   0.00000            Van der Waals: 0.000000           Coulomb: 0.00000            [K]
	      +/- 0.00000                       +/- 0.000000                +/- 0.00000            [K]

Host polarization energy:
=======================
	Block[ 0]            0.00000 [K]
	Block[ 1]            0.00000 [K]
	Block[ 2]            0.00000 [K]
	Block[ 3]            0.00000 [K]
	Block[ 4]            0.00000 [K]
	------------------------------------------------------------------------------
	Average              0.00000 [K] +/-            0.00000 [K]

Adsorbate polarization energy:
=======================
	Block[ 0]            0.00000 [K]
	Block[ 1]            0.00000 [K]
	Block[ 2]            0.00000 [K]
	Block[ 3]            0.00000 [K]
	Block[ 4]            0.00000 [K]
	------------------------------------------------------------------------------
	Average              0.00000 [K] +/-            0.00000 [K]

Cation polarization energy:
=======================
	Block[ 0]            0.00000 [K]
	Block[ 1]            0.00000 [K]
	Block[ 2]            0.00000 [K]
	Block[ 3]            0.00000 [K]
	Block[ 4]            0.00000 [K]
	------------------------------------------------------------------------------
	Average              0.00000 [K] +/-            0.00000 [K]

Host back-polarization energy:
=======================
	Block[ 0]            0.00000 [K]
	Block[ 1]            0.00000 [K]
	Block[ 2]            0.00000 [K]
	Block[ 3]            0.00000 [K]
	Block[ 4]            0.00000 [K]
	------------------------------------------------------------------------------
	Average              0.00000 [K] +/-            0.00000 [K]

Adsorbate back-polarization energy:
=======================
	Block[ 0]            0.00000 [K]
	Block[ 1]            0.00000 [K]
	Block[ 2]            0.00000 [K]
	Block[ 3]            0.00000 [K]
	Block[ 4]            0.00000 [K]
	------------------------------------------------------------------------------
	Average              0.00000 [K] +/-            0.00000 [K]

Cation back-polarization energy:
=======================
	Block[ 0]            0.00000 [K]
	Block[ 1]            0.00000 [K]
	Block[ 2]            0.00000 [K]
	Block[ 3]            0.00000 [K]
	Block[ 4]            0.00000 [K]
	------------------------------------------------------------------------------
	Average              0.00000 [K] +/-            0.00000 [K]

Tail-correction energy:
=======================
	Block[ 0]            0.00000 [K]
	Block[ 1]            0.00000 [K]
	Block[ 2]            0.00000 [K]
	Block[ 3]            0.00000 [K]
	Block[ 4]            0.00000 [K]
	------------------------------------------------------------------------------
	Average              0.00000 [K] +/-            0.00000 [K]

Distance-constraints energy:
=======================
	Block[ 0]            0.00000 [K]
	Block[ 1]            0.00000 [K]
	Block[ 2]            0.00000 [K]
	Block[ 3]            0.00000 [K]
	Block[ 4]            0.00000 [K]
	------------------------------------------------------------------------------
	Average              0.00000 [K] +/-            0.00000 [K]

Angle-constraints energy:
=======================
	Block[ 0]            0.00000 [K]
	Block[ 1]            0.00000 [K]
	Block[ 2]            0.00000 [K]
	Block[ 3]            0.00000 [K]
	Block[ 4]            0.00000 [K]
	------------------------------------------------------------------------------
	Average              0.00000 [K] +/-            0.00000 [K]

Dihedral-constraints energy:
=======================
	Block[ 0]            0.00000 [K]
	Block[ 1]            0.00000 [K]
	Block[ 2]            0.00000 [K]
	Block[ 3]            0.00000 [K]
	Block[ 4]            0.00000 [K]
	------------------------------------------------------------------------------
	Average              0.00000 [K] +/-            0.00000 [K]

Inversion-bend constraints energy:
=======================
	Block[ 0]            0.00000 [K]
	Block[ 1]            0.00000 [K]
	Block[ 2]            0.00000 [K]
	Block[ 3]            0.00000 [K]
	Block[ 4]            0.00000 [K]
	------------------------------------------------------------------------------
	Average              0.00000 [K] +/-            0.00000 [K]

Out-of-plane-distance constraints energy:
=======================
	Block[ 0]            0.00000 [K]
	Block[ 1]            0.00000 [K]
	Block[ 2]            0.00000 [K]
	Block[ 3]            0.00000 [K]
	Block[ 4]            0.00000 [K]
	------------------------------------------------------------------------------
	Average              0.00000 [K] +/-            0.00000 [K]

Exclusion-constraints energy:
=======================
	Block[ 0]            0.00000 [K]
	Block[ 1]            0.00000 [K]
	Block[ 2]            0.00000 [K]
	Block[ 3]            0.00000 [K]
	Block[ 4]            0.00000 [K]
	------------------------------------------------------------------------------
	Average              0.00000 [K] +/-            0.00000 [K]

Total energy:
=============
	Block[ 0]            0.00000 [K]
	Block[ 1]            0.00000 [K]
	Block[ 2]            0.00000 [K]
	Block[ 3]            0.00000 [K]
	Block[ 4]            0.00000 [K]
	------------------------------------------------------------------------------
	Average              0.00000 [K] +/-            0.00000 [K]

Number of molecules:
====================

Component 0 [helium]
-------------------------------------------------------------
	Block[ 0] 0.00000            [-]
	Block[ 1] 0.00000            [-]
	Block[ 2] 0.00000            [-]
	Block[ 3] 0.00000            [-]
	Block[ 4] 0.00000            [-]
	------------------------------------------------------------------------------
	Average                                      0.0000000000 +/-       0.0000000000 [-]
	Average loading absolute [molecules/unit cell]        0.0000000000 +/-       0.0000000000 [-]
	Average loading absolute [mol/kg framework]          0.0000000000 +/-       0.0000000000 [-]
	Average loading absolute [milligram/gram framework]          0.0000000000 +/-       0.0000000000 [-]
	Average loading absolute [cm^3 (STP)/gr framework]          0.0000000000 +/-       0.0000000000 [-]
	Average loading absolute [cm^3 (STP)/cm^3 framework]          0.0000000000 +/-       0.0000000000 [-]

	Block[ 0] 0.00000            [-]
	Block[ 1] 0.00000            [-]
	Block[ 2] 0.00000            [-]
	Block[ 3] 0.00000            [-]
	Block[ 4] 0.00000            [-]
	------------------------------------------------------------------------------
	Average                                      0.0000000000 +/-       0.0000000000 [-]
	Average loading excess [molecules/unit cell]        0.0000000000 +/-       0.0000000000 [-]
	Average loading excess [mol/kg framework]          0.0000000000 +/-       0.0000000000 [-]
	Average loading excess [milligram/gram framework]          0.0000000000 +/-       0.0000000000 [-]
	Average loading excess [cm^3 (STP)/gr framework]          0.0000000000 +/-       0.0000000000 [-]
	Average loading excess [cm^3 (STP)/cm^3 framework]          0.0000000000 +/-       0.0000000000 [-]


Average Widom Rosenbluth factor:
================================
	Block[ 0] 0.495527 [-]
	Block[ 1] 0.495649 [-]
	Block[ 2] 0.495105 [-]
	Block[ 3] 0.49514 [-]
	Block[ 4] 0.495248 [-]
	------------------------------------------------------------------------------
	[helium] Average Widom Rosenbluth-weight:   0.495334 +/- 0.000433 [-]

Average Widom chemical potential:
=================================
	Block[ 0] -2787.27 [-]
	Block[ 1] -2787.34 [-]
	Block[ 2] -2787.02 [-]
	Block[ 3] -2787.04 [-]
	Block[ 4] -2787.1 [-]
	------------------------------------------------------------------------------
	[helium] Average chemical potential:   -2787.15 +/- 0.260265 [K]

Average Widom Ideal-gas contribution:
=====================================
	Block[ 0] -2996.51 [-]
	Block[ 1] -2996.51 [-]
	Block[ 2] -2996.51 [-]
	Block[ 3] -2996.51 [-]
	Block[ 4] -2996.51 [-]
	------------------------------------------------------------------------------
	[helium] Average Widom Ideal-gas chemical potential:   -2996.51 +/- 0.000086 [-]

Average Widom excess contribution:
==================================
	Block[ 0] 209.236 [-]
	Block[ 1] 209.162 [-]
	Block[ 2] 209.49 [-]
	Block[ 3] 209.469 [-]
	Block[ 4] 209.404 [-]
	------------------------------------------------------------------------------
	[helium] Average Widom excess chemical potential:   209.352 +/- 0.260265 [-]

Average Gibbs Widom Rosenbluth factor:
======================================
	Block[ 0] 0 [-]
	Block[ 1] 0 [-]
	Block[ 2] 0 [-]
	Block[ 3] 0 [-]
	Block[ 4] 0 [-]
	------------------------------------------------------------------------------
	[helium] Average Gibbs Widom Rosenbluth-weight:   0 +/- 0.000000 [-]

Average Gibbs Widom chemical potential:
=======================================
	Block[ 0] 0 [-]
	Block[ 1] 0 [-]
	Block[ 2] 0 [-]
	Block[ 3] 0 [-]
	Block[ 4] 0 [-]
	------------------------------------------------------------------------------
	[helium] Average Gibbs chemical potential:   0 +/- 0.000000 [K]

Average Gibbs Widom Ideal-gas contribution:
===========================================
	Block[ 0] 0 [-]
	Block[ 1] 0 [-]
	Block[ 2] 0 [-]
	Block[ 3] 0 [-]
	Block[ 4] 0 [-]
	------------------------------------------------------------------------------
	[helium] Average Gibbs Ideal-gas chemical potential:   0 +/- 0.000000 [-]

Average Gibbs Widom excess contribution:
===========================================
	Block[ 0] 0 [-]
	Block[ 1] 0 [-]
	Block[ 2] 0 [-]
	Block[ 3] 0 [-]
	Block[ 4] 0 [-]
	------------------------------------------------------------------------------
	[helium] Average Gibbs excess chemical potential:   0 +/- 0.000000 [-]

Average Henry coefficient:
==========================
	Block[ 0] 1.73169e-07 [mol/kg/Pa]
	Block[ 1] 1.73212e-07 [mol/kg/Pa]
	Block[ 2] 1.73022e-07 [mol/kg/Pa]
	Block[ 3] 1.73034e-07 [mol/kg/Pa]
	Block[ 4] 1.73072e-07 [mol/kg/Pa]
	------------------------------------------------------------------------------
	[helium] Average Henry coefficient:  1.73102e-07 +/- 1.51195e-10 [mol/kg/Pa]

Average adsorption energy <U_gh>_1-<U_h>_0 obtained from Widom-insertion:
(Note: the total heat of adsorption is dH=<U_gh>_1-<U_h>_0 - <U_g> - RT)
=========================================================================
	Block[ 0] -137.8953760362    [K]
	Block[ 1] -137.8893564577    [K]
	Block[ 2] -137.5364795329    [K]
	Block[ 3] -138.0626683479    [K]
	Block[ 4] -137.9371387429    [K]
	------------------------------------------------------------------------------
	[helium] Average  <U_gh>_1-<U_h>_0:     -137.8642038235 +/-       0.3506739140 [K]       (     -1.1462670863 +/-       0.0029156660 kJ/mol)

Simulation finished,  0 warnings


Tue May 17 06:05:08 2022
Simulation finished on Tuesday, May 17.
The end time was 06:05 AM.

