Compiler and run-time data
===========================================================================
RASPA 2.0.37
Compiled as a 64-bits application
Compiler: gcc 7.5.0
Compile Date = Nov 15 2021, Compile Time = 11:09:27

Sat Dec 11 07:55:15 2021
Simulation started on Saturday, December 11.
The start time was 07:55 AM.

Hostname:    The start time was 07:55 AM.
OS type:     The start time was 07:55 AM.
OS release:  The start time was 07:55 AM.
OS version:  The start time was 07:55 AM.

Simulation
===========================================================================
Dimensions: 3
Random number seed: 1639176914
RASPA directory set to: /home/inukai/RASPA2
String appended to output-files: 
Number of cycles: 10000
Number of initializing cycles: 0
Number of equilibration cycles: 0
Print every: 100
Triclinic boundary condition applied
Timestep: 0.000500
	Degrees of freedom:                        0
	Translational Degrees of freedom:          0
	Rotational Degrees of freedom:             0
	Degrees of freedom Framework:              0


Mutual consistent basic set of units:
======================================
Unit of temperature: Kelvin
Unit of length:      1e-10 [m]
Unit of time:        1e-12 [s]
Unit of mass:        1.66054e-27 [kg]
Unit of charge:      1.60218e-19 [C/particle]

Derived units and their conversion factors:
===========================================
Unit of energy:              1.66054e-23 [J]
Unit of force:               1.66054e-13 [N]
Unit of pressure:            1.66054e+07 [Pa]
Unit of velocity:            100 [m/s]
Unit of acceleration:        1e-08 [m^2/s]
Unit of diffusion:           1e-08 [m^2/s]
Unit of dipole moment:       1.60218e-29 [C.m]
Unit of electric potential:  0.000103643 [V]
Unit of electric field:      1.03643e+06 [V]
Unit of polarizability:      1.54587e-35 [-]
Unit of Coulomb potential:   167101.0800066561  [K]
Unit of dielectric constant: 0.0000154587       [s^2 C^2/(kg m^3)]
Unit of wave vectors:        5.3088374589       [cm^1]
Boltzmann constant:          0.8314464919       [-]

Internal conversion factors:
===========================================
Energy to Kelvin:                                    1.2027242847
FH correction factor                                 2.0211930949
Heat capacity conversion factor:                    10.0000088723
From Debye to internal units:                        4.8032067991
Isothermal compressibility conversion factor:        0.0000000602

Energy conversion factors:
===========================================
From mdyne/A to kcal/mol/A^2:           143.933
From mdyne/A to kj/mol/A^2:             602.214
From mdyne/A to K/A^2:                  72429.7
From mdyne A/rad^2 to kcal/mol/deg^2:   0.0438444


Properties computed
===========================================================================
Movies: no
Radial Distribution Function: no
Number of molecules GCMC histogram: no
Histogram of the molecule positions: no
Free energy profiles: no
Pore Size Distribution Function: no
End-to-end distance: no
Histogram of the energy of the system: no
Compute thermodynamic factors: no
Framework spacing histograms: no
Residence times histograms: no
Distance histograms: no
Bend Angle histograms: no
Dihedral angle histograms: no
Angle between planes histograms: no
Molecule properties: no
Infra-red spectra: no
Mean-squared displacement using modified order-N algorithm: no
Velocity-autocorrelation function modified order-N algorithm: no
Rotational velocity-autocorrelation function modified order-N algorithm: no
Molecular orientation-autocorrelation function modified order-N algorithm: no
Bond orientation-autocorrelation function modified order-N algorithm: no
Mean-squared displacement (conventional algorithm): no
Velocity-autocorrelation function (conventional algorithm): no
3D density grid for adsorbates: no
Compute cation an/or adsorption sites: no
dcTST snapshots: no
Compute pressure and stress: no


VTK
===========================================================================
VTK fractional-range position framework atoms: [-0.001000,1.001000] [-0.001000,1.001000] [-0.001000,1.001000]
VTK fractional-range position framework bonds: [-0.151000,1.151000] [-0.151000,1.151000] [-0.151000,1.151000]
VTK fractional-range com-position adsorbate molecules: [-0.101000,1.101000] [-0.101000,1.101000] [-0.101000,1.101000]
VTK fractional-range com-position cation molecules: [-0.101000,1.101000] [-0.101000,1.101000] [-0.101000,1.101000]
	3D free energy grid made for the full simulation-cell


Thermo/Baro-stat NHC parameters
===========================================================================
External temperature: 298 [K]
Beta: 0 [energy unit]
External Pressure: 0 [Pa]


Thermostat chain-length: 3
Timescale parameter for thermostat: 0.150000 [ps]
Barostat chain-length:   3
Timescale parameter for barostat:   0.150000 [ps]

Number of Yoshida-Suzuki decomposition steps: 5
Number of respa steps: 5


Method and settings for electrostatics
===============================================================================
Dielectric constant of the medium : 1.000000
Charge from charge-equilibration: no
Ewald summation is used (exact solution of a periodic system)
Relative precision                : 1e-06
Alpha convergence parameter       : 0.265058
kvec (x,y,z)                      : 7 7 7


CFC-RXMC parameters
===========================================================================
Number of reactions: 0


Rattle parameters
===========================================================================
Distance constraint type: r^2-r^2_0
Bend angle constraint type: theta-theta_0
Dihedral angle constraint type: phi-phi_0
Inversion-bend angle constraint type: chi-chi_0
Out-of-plane distance constraint type: r-r_0


Spectra parameters
===========================================================================
Compute normal modes: no


Minimization parameters
===========================================================================
Generalized coordinates are: Cartesian center-of-mass, elements of the orientational matrix p1,p2,p3 and strain
Potential derivatives are evaluated: analytically
Translation of the system is removed from the generalized Hessian: no
Rotation of the system is removed from the generalized Hessian: no
Maximum step-length: 0.3
Convergence factor: 1
Maximum number of minimization steps: 10000
Use gradients in the line-minimizations: yes
RMS gradient tolerance: 1e-06
Maximum gradient tolerance: 1e-06

Distance constraints: 0
Angle constraints: 0
Dihedral constraints: 0

Improper dihedral constraints: 0

Inversion-bend constraints: 0

Out-of-plane constraints: 0

Harmonic distance constraints: 0
Harmonic angle constraints: 0
Harmonic dihedral constraints: 0

Dihedral mid-point measurements: 0

All framework atoms are fixed

Fixed adsorbate atoms:  
Fixed adsorbate groups (center-of-mass):  
Fixed adsorbate groups (orientation):  

Fixed cation atoms:  
Fixed cation groups (center-of-mass):  
Fixed cation groups (orientation):  


dcTST parameters
===========================================================================
Free energy profiles computed: no
Free energy profiles written every 5000 cycles
Free energy mapping: mapped to a,b,c-coordinates
BarrierPosition:       0.0000000000       0.0000000000       0.0000000000
BarrierNormal:         0.0000000000       0.0000000000       0.0000000000
Start with a molecule on top of the barrier: no
Maximum distance to barrier (e.g. distance to minumum free energy):       0.0000000000 [A]
Maximum trajectory time:      10.0000000000 [ps]
Each configuration is used with 5 different initial velocities


Cbmc parameters
===========================================================================
Biasing method: using only the VDW part
Number of trial positions:                                       10
Number of trial positions (reinsertion):                         10
Number of trial positions (partial reinsertion):                 10
Number of trial positions (identity-change):                     10
Number of trial positions (Gibbs particle transfer):             10
Number of trial positions (insertion/deletion):                  10
Number of trial positions (Widom insertion):                     10
Number of trial positions coupled Torsion-selection:             100
Number of trial positions first bead:                            10
Number of trial positions first bead (reinsertion):              10
Number of trial positions first bead (partial reinsertion):      10
Number of trial positions first bead (identity-change):          10
Number of trial positions first bead (Gibbs particle transfer):  10
Number of trial positions first bead (insertion/deletion):       10
Number of trial positions first bead (Widom insertion):          10
Number of trial moves per open bead:                             150
Target acceptance ratio small-mc scheme:                         0.400000
Energy overlap criteria:                                         1e+07
Minimal Rosenbluth factor:                                       1e-150


Pseudo atoms: 132
===========================================================================
Pseudo Atom[   0] Name UNIT     Oxidation:          Element: H    pdb-name: H    Scat. Types:   1   1 Mass=1.000000000  B-factor:0.000   
                 Charge=1.000000000          Polarization=0.000000000  [A^3] (considered a charged atom and no polarization)  Interactions: yes
                 Anisotropic factor:    0.000 [-] (Absolute), Radius:    1.000 [A], Framework-atom:  no
Pseudo Atom[   1] Name He       Oxidation: +0       Element: He   pdb-name: He   Scat. Types:   3   2 Mass=4.002602000  B-factor:1.000   
                 Charge=0.000000000          Polarization=0.000000000  [A^3] (considered a chargeless atom and no polarization)  Interactions: yes
                 Anisotropic factor:    0.000 [-] (Relative), Radius:    1.000 [A], Framework-atom:  no
Pseudo Atom[   2] Name CH4_sp3  Oxidation: +0       Element: C    pdb-name: C    Scat. Types:   7   6 Mass=16.042460000 B-factor:1.000   
                 Charge=0.000000000          Polarization=0.000000000  [A^3] (considered a chargeless atom and no polarization)  Interactions: yes
                 Anisotropic factor:    0.000 [-] (Relative), Radius:    1.000 [A], Framework-atom:  no
Pseudo Atom[   3] Name CH3_sp3  Oxidation: +0       Element: C    pdb-name: C    Scat. Types:   7   6 Mass=15.034520000 B-factor:1.000   
                 Charge=0.000000000          Polarization=0.000000000  [A^3] (considered a chargeless atom and no polarization)  Interactions: yes
                 Anisotropic factor:    0.000 [-] (Relative), Radius:    1.000 [A], Framework-atom:  no
Pseudo Atom[   4] Name CH2_sp3  Oxidation: +0       Element: C    pdb-name: C    Scat. Types:   7   6 Mass=14.026580000 B-factor:1.000   
                 Charge=0.000000000          Polarization=0.000000000  [A^3] (considered a chargeless atom and no polarization)  Interactions: yes
                 Anisotropic factor:    0.000 [-] (Relative), Radius:    1.000 [A], Framework-atom:  no
Pseudo Atom[   5] Name CH_sp3   Oxidation: +0       Element: C    pdb-name: C    Scat. Types:   7   6 Mass=13.018640000 B-factor:1.000   
                 Charge=0.000000000          Polarization=0.000000000  [A^3] (considered a chargeless atom and no polarization)  Interactions: yes
                 Anisotropic factor:    0.000 [-] (Relative), Radius:    1.000 [A], Framework-atom:  no
Pseudo Atom[   6] Name C_sp3    Oxidation: +0       Element: C    pdb-name: C    Scat. Types:   7   6 Mass=12.000000000 B-factor:1.000   
                 Charge=0.000000000          Polarization=0.000000000  [A^3] (considered a chargeless atom and no polarization)  Interactions: yes
                 Anisotropic factor:    0.000 [-] (Relative), Radius:    1.000 [A], Framework-atom:  no
Pseudo Atom[   7] Name H_h2     Oxidation: +0       Element: H    pdb-name: H    Scat. Types:   1   1 Mass=1.007940000  B-factor:1.000   
                 Charge=0.468000000          Polarization=0.000000000  [A^3] (considered a charged atom and no polarization)  Interactions: yes
                 Anisotropic factor:    0.000 [-] (Relative), Radius:    0.700 [A], Framework-atom:  no
Pseudo Atom[   8] Name H_com    Oxidation: +0       Element: H    pdb-name: H    Scat. Types:   1   1 Mass=0.000000000  B-factor:1.000   
                 Charge=-0.936000000         Polarization=0.000000000  [A^3] (considered a charged atom and no polarization)  Interactions: yes
                 Anisotropic factor:    0.000 [-] (Relative), Radius:    0.700 [A], Framework-atom:  no
Pseudo Atom[   9] Name C_co2    Oxidation: +0       Element: C    pdb-name: C    Scat. Types:   7   6 Mass=12.000000000 B-factor:1.000   
                 Charge=0.651200000          Polarization=0.000000000  [A^3] (considered a charged atom and no polarization)  Interactions: yes
                 Anisotropic factor:    0.000 [-] (Relative), Radius:    0.720 [A], Framework-atom:  no
Pseudo Atom[  10] Name O_co2    Oxidation: +0       Element: O    pdb-name: O    Scat. Types:   9   8 Mass=15.999400000 B-factor:1.000   
                 Charge=-0.325600000         Polarization=0.000000000  [A^3] (considered a charged atom and no polarization)  Interactions: yes
                 Anisotropic factor:    0.000 [-] (Relative), Radius:    0.680 [A], Framework-atom:  no
Pseudo Atom[  11] Name O_o2     Oxidation: +0       Element: O    pdb-name: O    Scat. Types:   9   8 Mass=15.999400000 B-factor:1.000   
                 Charge=-0.112000000         Polarization=0.000000000  [A^3] (considered a charged atom and no polarization)  Interactions: yes
                 Anisotropic factor:    0.000 [-] (Relative), Radius:    0.700 [A], Framework-atom:  no
Pseudo Atom[  12] Name O_com    Oxidation: +0       Element: -    pdb-name: O    Scat. Types:   0   8 Mass=0.000000000  B-factor:1.000   
                 Charge=0.224000000          Polarization=0.000000000  [A^3] (considered a charged atom and no polarization)  Interactions: yes
                 Anisotropic factor:    0.000 [-] (Relative), Radius:    0.700 [A], Framework-atom:  no
Pseudo Atom[  13] Name N_n2     Oxidation: +0       Element: N    pdb-name: N    Scat. Types:   8   7 Mass=14.006740000 B-factor:1.000   
                 Charge=-0.405000000         Polarization=0.000000000  [A^3] (considered a charged atom and no polarization)  Interactions: yes
                 Anisotropic factor:    0.000 [-] (Relative), Radius:    0.700 [A], Framework-atom:  no
Pseudo Atom[  14] Name N_com    Oxidation: +0       Element: -    pdb-name: N    Scat. Types:   0   7 Mass=0.000000000  B-factor:1.000   
                 Charge=0.810000000          Polarization=0.000000000  [A^3] (considered a charged atom and no polarization)  Interactions: yes
                 Anisotropic factor:    0.000 [-] (Relative), Radius:    0.700 [A], Framework-atom:  no
Pseudo Atom[  15] Name Ar       Oxidation: +0       Element: Ar   pdb-name: Ar   Scat. Types:  19  18 Mass=39.948000000 B-factor:1.000   
                 Charge=0.000000000          Polarization=0.000000000  [A^3] (considered a chargeless atom and no polarization)  Interactions: yes
                 Anisotropic factor:    0.000 [-] (Relative), Radius:    0.700 [A], Framework-atom:  no
Pseudo Atom[  16] Name Ow       Oxidation: +0       Element: O    pdb-name: O    Scat. Types:   9   8 Mass=15.999400000 B-factor:1.000   
                 Charge=0.000000000          Polarization=0.000000000  [A^3] (considered a chargeless atom and no polarization)  Interactions: yes
                 Anisotropic factor:    0.000 [-] (Relative), Radius:    0.500 [A], Framework-atom:  no
Pseudo Atom[  17] Name Hw       Oxidation: +0       Element: H    pdb-name: H    Scat. Types:   1   1 Mass=1.007940000  B-factor:1.000   
                 Charge=0.241000000          Polarization=0.000000000  [A^3] (considered a charged atom and no polarization)  Interactions: yes
                 Anisotropic factor:    0.000 [-] (Relative), Radius:    1.000 [A], Framework-atom:  no
Pseudo Atom[  18] Name Lw       Oxidation: +0       Element: H    pdb-name: L    Scat. Types:   1   3 Mass=0.000000000  B-factor:1.000   
                 Charge=-0.241000000         Polarization=0.000000000  [A^3] (considered a charged atom and no polarization)  Interactions: yes
                 Anisotropic factor:    0.000 [-] (Relative), Radius:    1.000 [A], Framework-atom:  no
Pseudo Atom[  19] Name C_benz   Oxidation: +0       Element: C    pdb-name: C    Scat. Types:   7   6 Mass=12.000000000 B-factor:1.000   
                 Charge=-0.095000000         Polarization=0.000000000  [A^3] (considered a charged atom and no polarization)  Interactions: yes
                 Anisotropic factor:    0.000 [-] (Relative), Radius:    0.700 [A], Framework-atom:  no
Pseudo Atom[  20] Name H_benz   Oxidation: +0       Element: H    pdb-name: H    Scat. Types:   1   1 Mass=1.007940000  B-factor:1.000   
                 Charge=0.095000000          Polarization=0.000000000  [A^3] (considered a charged atom and no polarization)  Interactions: yes
                 Anisotropic factor:    0.000 [-] (Relative), Radius:    0.320 [A], Framework-atom:  no
Pseudo Atom[  21] Name N_dmf    Oxidation: +0       Element: N    pdb-name: N    Scat. Types:   8   7 Mass=14.006740000 B-factor:1.000   
                 Charge=-0.570000000         Polarization=0.000000000  [A^3] (considered a charged atom and no polarization)  Interactions: yes
                 Anisotropic factor:    0.000 [-] (Relative), Radius:    0.500 [A], Framework-atom:  no
Pseudo Atom[  22] Name Co_dmf   Oxidation: +0       Element: C    pdb-name: C    Scat. Types:   7   6 Mass=12.000000000 B-factor:1.000   
                 Charge=0.450000000          Polarization=0.000000000  [A^3] (considered a charged atom and no polarization)  Interactions: yes
                 Anisotropic factor:    0.000 [-] (Relative), Radius:    0.520 [A], Framework-atom:  no
Pseudo Atom[  23] Name Cm_dmf   Oxidation: +0       Element: C    pdb-name: C    Scat. Types:   7   6 Mass=12.000000000 B-factor:1.000   
                 Charge=0.280000000          Polarization=0.000000000  [A^3] (considered a charged atom and no polarization)  Interactions: yes
                 Anisotropic factor:    0.000 [-] (Relative), Radius:    0.520 [A], Framework-atom:  no
Pseudo Atom[  24] Name O_dmf    Oxidation: +0       Element: O    pdb-name: O    Scat. Types:   9   8 Mass=15.999400000 B-factor:1.000   
                 Charge=-0.500000000         Polarization=0.000000000  [A^3] (considered a charged atom and no polarization)  Interactions: yes
                 Anisotropic factor:    0.000 [-] (Relative), Radius:    0.780 [A], Framework-atom:  no
Pseudo Atom[  25] Name H_dmf    Oxidation: +0       Element: H    pdb-name: H    Scat. Types:   1   1 Mass=1.007940000  B-factor:1.000   
                 Charge=0.060000000          Polarization=0.000000000  [A^3] (considered a charged atom and no polarization)  Interactions: yes
                 Anisotropic factor:    0.000 [-] (Relative), Radius:    0.220 [A], Framework-atom:  no
Pseudo Atom[  26] Name Na       Oxidation: +0       Element: Na   pdb-name: Na   Scat. Types:  12  11 Mass=22.989770000 B-factor:1.000   
                 Charge=1.000000000          Polarization=0.000000000  [A^3] (considered a charged atom and no polarization)  Interactions: yes
                 Anisotropic factor:    0.000 [-] (Relative), Radius:    1.000 [A], Framework-atom:  no
Pseudo Atom[  27] Name Cl       Oxidation: +0       Element: Cl   pdb-name: Cl   Scat. Types:  18  17 Mass=35.453000000 B-factor:1.000   
                 Charge=-1.000000000         Polarization=0.000000000  [A^3] (considered a charged atom and no polarization)  Interactions: yes
                 Anisotropic factor:    0.000 [-] (Relative), Radius:    1.000 [A], Framework-atom:  no
Pseudo Atom[  28] Name Kr       Oxidation: +0       Element: Kr   pdb-name: Kr   Scat. Types:  37  36 Mass=83.798000000 B-factor:1.000   
                 Charge=0.000000000          Polarization=0.000000000  [A^3] (considered a chargeless atom and no polarization)  Interactions: yes
                 Anisotropic factor:    0.000 [-] (Relative), Radius:    1.000 [A], Framework-atom:  no
Pseudo Atom[  29] Name Xe       Oxidation: +0       Element: Xe   pdb-name: Xe   Scat. Types:  55  54 Mass=131.293000000 B-factor:1.000   
                 Charge=0.000000000          Polarization=0.000000000  [A^3] (considered a chargeless atom and no polarization)  Interactions: yes
                 Anisotropic factor:    0.000 [-] (Relative), Radius:    1.000 [A], Framework-atom:  no
Pseudo Atom[  30] Name Cu1      Oxidation:          Element: Cu   pdb-name: Cu   Scat. Types:  30  29 Mass=63.546039732 B-factor:0.000   
                 Charge=0.000000000  (-na-)  Polarization=6.200000000  [A^3] (considered a chargeless atom and no polarization)  Interactions: yes
                 Anisotropic factor:    0.000 [-] (Absolute), Radius:    1.220 [A], Framework-atom: yes (charge definition not found)
Pseudo Atom[  31] Name O1       Oxidation:          Element: O    pdb-name: O    Scat. Types:   9   8 Mass=15.999404927 B-factor:0.000   
                 Charge=0.000000000  (-na-)  Polarization=0.802000000  [A^3] (considered a chargeless atom and no polarization)  Interactions: yes
                 Anisotropic factor:    0.000 [-] (Absolute), Radius:    0.640 [A], Framework-atom: yes (charge definition not found)
Pseudo Atom[  32] Name C1       Oxidation:          Element: C    pdb-name: C    Scat. Types:   7   6 Mass=12.010735897 B-factor:0.000   
                 Charge=0.000000000  (-na-)  Polarization=1.760000000  [A^3] (considered a chargeless atom and no polarization)  Interactions: yes
                 Anisotropic factor:    0.000 [-] (Absolute), Radius:    0.750 [A], Framework-atom: yes (charge definition not found)
Pseudo Atom[  33] Name C2       Oxidation:          Element: C    pdb-name: C    Scat. Types:   7   6 Mass=12.010735897 B-factor:0.000   
                 Charge=0.000000000  (-na-)  Polarization=1.760000000  [A^3] (considered a chargeless atom and no polarization)  Interactions: yes
                 Anisotropic factor:    0.000 [-] (Absolute), Radius:    0.750 [A], Framework-atom: yes (charge definition not found)
Pseudo Atom[  34] Name C3       Oxidation:          Element: C    pdb-name: C    Scat. Types:   7   6 Mass=12.010735897 B-factor:0.000   
                 Charge=0.000000000  (-na-)  Polarization=1.760000000  [A^3] (considered a chargeless atom and no polarization)  Interactions: yes
                 Anisotropic factor:    0.000 [-] (Absolute), Radius:    0.750 [A], Framework-atom: yes (charge definition not found)
Pseudo Atom[  35] Name H1       Oxidation:          Element: H    pdb-name: H    Scat. Types:   1   1 Mass=1.007940754  B-factor:0.000   
                 Charge=0.000000000  (-na-)  Polarization=0.666793000  [A^3] (considered a chargeless atom and no polarization)  Interactions: yes
                 Anisotropic factor:    0.000 [-] (Absolute), Radius:    0.320 [A], Framework-atom: yes (charge definition not found)
Pseudo Atom[  36] Name Cu2      Oxidation:          Element: Cu   pdb-name: Cu   Scat. Types:  30  29 Mass=63.546039732 B-factor:0.000   
                 Charge=0.000000000  (-na-)  Polarization=6.200000000  [A^3] (considered a chargeless atom and no polarization)  Interactions: yes
                 Anisotropic factor:    0.000 [-] (Absolute), Radius:    1.220 [A], Framework-atom: yes (charge definition not found)
Pseudo Atom[  37] Name Cu3      Oxidation:          Element: Cu   pdb-name: Cu   Scat. Types:  30  29 Mass=63.546039732 B-factor:0.000   
                 Charge=0.000000000  (-na-)  Polarization=6.200000000  [A^3] (considered a chargeless atom and no polarization)  Interactions: yes
                 Anisotropic factor:    0.000 [-] (Absolute), Radius:    1.220 [A], Framework-atom: yes (charge definition not found)
Pseudo Atom[  38] Name Cu4      Oxidation:          Element: Cu   pdb-name: Cu   Scat. Types:  30  29 Mass=63.546039732 B-factor:0.000   
                 Charge=0.000000000  (-na-)  Polarization=6.200000000  [A^3] (considered a chargeless atom and no polarization)  Interactions: yes
                 Anisotropic factor:    0.000 [-] (Absolute), Radius:    1.220 [A], Framework-atom: yes (charge definition not found)
Pseudo Atom[  39] Name Cu5      Oxidation:          Element: Cu   pdb-name: Cu   Scat. Types:  30  29 Mass=63.546039732 B-factor:0.000   
                 Charge=0.000000000  (-na-)  Polarization=6.200000000  [A^3] (considered a chargeless atom and no polarization)  Interactions: yes
                 Anisotropic factor:    0.000 [-] (Absolute), Radius:    1.220 [A], Framework-atom: yes (charge definition not found)
Pseudo Atom[  40] Name Cu6      Oxidation:          Element: Cu   pdb-name: Cu   Scat. Types:  30  29 Mass=63.546039732 B-factor:0.000   
                 Charge=0.000000000  (-na-)  Polarization=6.200000000  [A^3] (considered a chargeless atom and no polarization)  Interactions: yes
                 Anisotropic factor:    0.000 [-] (Absolute), Radius:    1.220 [A], Framework-atom: yes (charge definition not found)
Pseudo Atom[  41] Name Cu7      Oxidation:          Element: Cu   pdb-name: Cu   Scat. Types:  30  29 Mass=63.546039732 B-factor:0.000   
                 Charge=0.000000000  (-na-)  Polarization=6.200000000  [A^3] (considered a chargeless atom and no polarization)  Interactions: yes
                 Anisotropic factor:    0.000 [-] (Absolute), Radius:    1.220 [A], Framework-atom: yes (charge definition not found)
Pseudo Atom[  42] Name Cu8      Oxidation:          Element: Cu   pdb-name: Cu   Scat. Types:  30  29 Mass=63.546039732 B-factor:0.000   
                 Charge=0.000000000  (-na-)  Polarization=6.200000000  [A^3] (considered a chargeless atom and no polarization)  Interactions: yes
                 Anisotropic factor:    0.000 [-] (Absolute), Radius:    1.220 [A], Framework-atom: yes (charge definition not found)
Pseudo Atom[  43] Name Cu9      Oxidation:          Element: Cu   pdb-name: Cu   Scat. Types:  30  29 Mass=63.546039732 B-factor:0.000   
                 Charge=0.000000000  (-na-)  Polarization=6.200000000  [A^3] (considered a chargeless atom and no polarization)  Interactions: yes
                 Anisotropic factor:    0.000 [-] (Absolute), Radius:    1.220 [A], Framework-atom: yes (charge definition not found)
Pseudo Atom[  44] Name Cu10     Oxidation:          Element: Cu   pdb-name: Cu   Scat. Types:  30  29 Mass=63.546039732 B-factor:0.000   
                 Charge=0.000000000  (-na-)  Polarization=6.200000000  [A^3] (considered a chargeless atom and no polarization)  Interactions: yes
                 Anisotropic factor:    0.000 [-] (Absolute), Radius:    1.220 [A], Framework-atom: yes (charge definition not found)
Pseudo Atom[  45] Name Cu11     Oxidation:          Element: Cu   pdb-name: Cu   Scat. Types:  30  29 Mass=63.546039732 B-factor:0.000   
                 Charge=0.000000000  (-na-)  Polarization=6.200000000  [A^3] (considered a chargeless atom and no polarization)  Interactions: yes
                 Anisotropic factor:    0.000 [-] (Absolute), Radius:    1.220 [A], Framework-atom: yes (charge definition not found)
Pseudo Atom[  46] Name Cu12     Oxidation:          Element: Cu   pdb-name: Cu   Scat. Types:  30  29 Mass=63.546039732 B-factor:0.000   
                 Charge=0.000000000  (-na-)  Polarization=6.200000000  [A^3] (considered a chargeless atom and no polarization)  Interactions: yes
                 Anisotropic factor:    0.000 [-] (Absolute), Radius:    1.220 [A], Framework-atom: yes (charge definition not found)
Pseudo Atom[  47] Name Cu13     Oxidation:          Element: Cu   pdb-name: Cu   Scat. Types:  30  29 Mass=63.546039732 B-factor:0.000   
                 Charge=0.000000000  (-na-)  Polarization=6.200000000  [A^3] (considered a chargeless atom and no polarization)  Interactions: yes
                 Anisotropic factor:    0.000 [-] (Absolute), Radius:    1.220 [A], Framework-atom: yes (charge definition not found)
Pseudo Atom[  48] Name Cu14     Oxidation:          Element: Cu   pdb-name: Cu   Scat. Types:  30  29 Mass=63.546039732 B-factor:0.000   
                 Charge=0.000000000  (-na-)  Polarization=6.200000000  [A^3] (considered a chargeless atom and no polarization)  Interactions: yes
                 Anisotropic factor:    0.000 [-] (Absolute), Radius:    1.220 [A], Framework-atom: yes (charge definition not found)
Pseudo Atom[  49] Name Cu15     Oxidation:          Element: Cu   pdb-name: Cu   Scat. Types:  30  29 Mass=63.546039732 B-factor:0.000   
                 Charge=0.000000000  (-na-)  Polarization=6.200000000  [A^3] (considered a chargeless atom and no polarization)  Interactions: yes
                 Anisotropic factor:    0.000 [-] (Absolute), Radius:    1.220 [A], Framework-atom: yes (charge definition not found)
Pseudo Atom[  50] Name Cu16     Oxidation:          Element: Cu   pdb-name: Cu   Scat. Types:  30  29 Mass=63.546039732 B-factor:0.000   
                 Charge=0.000000000  (-na-)  Polarization=6.200000000  [A^3] (considered a chargeless atom and no polarization)  Interactions: yes
                 Anisotropic factor:    0.000 [-] (Absolute), Radius:    1.220 [A], Framework-atom: yes (charge definition not found)
Pseudo Atom[  51] Name Cu17     Oxidation:          Element: Cu   pdb-name: Cu   Scat. Types:  30  29 Mass=63.546039732 B-factor:0.000   
                 Charge=0.000000000  (-na-)  Polarization=6.200000000  [A^3] (considered a chargeless atom and no polarization)  Interactions: yes
                 Anisotropic factor:    0.000 [-] (Absolute), Radius:    1.220 [A], Framework-atom: yes (charge definition not found)
Pseudo Atom[  52] Name Cu18     Oxidation:          Element: Cu   pdb-name: Cu   Scat. Types:  30  29 Mass=63.546039732 B-factor:0.000   
                 Charge=0.000000000  (-na-)  Polarization=6.200000000  [A^3] (considered a chargeless atom and no polarization)  Interactions: yes
                 Anisotropic factor:    0.000 [-] (Absolute), Radius:    1.220 [A], Framework-atom: yes (charge definition not found)
Pseudo Atom[  53] Name O2       Oxidation:          Element: O    pdb-name: O    Scat. Types:   9   8 Mass=15.999404927 B-factor:0.000   
                 Charge=0.000000000  (-na-)  Polarization=0.802000000  [A^3] (considered a chargeless atom and no polarization)  Interactions: yes
                 Anisotropic factor:    0.000 [-] (Absolute), Radius:    0.640 [A], Framework-atom: yes (charge definition not found)
Pseudo Atom[  54] Name O3       Oxidation:          Element: O    pdb-name: O    Scat. Types:   9   8 Mass=15.999404927 B-factor:0.000   
                 Charge=0.000000000  (-na-)  Polarization=0.802000000  [A^3] (considered a chargeless atom and no polarization)  Interactions: yes
                 Anisotropic factor:    0.000 [-] (Absolute), Radius:    0.640 [A], Framework-atom: yes (charge definition not found)
Pseudo Atom[  55] Name O4       Oxidation:          Element: O    pdb-name: O    Scat. Types:   9   8 Mass=15.999404927 B-factor:0.000   
                 Charge=0.000000000  (-na-)  Polarization=0.802000000  [A^3] (considered a chargeless atom and no polarization)  Interactions: yes
                 Anisotropic factor:    0.000 [-] (Absolute), Radius:    0.640 [A], Framework-atom: yes (charge definition not found)
Pseudo Atom[  56] Name O5       Oxidation:          Element: O    pdb-name: O    Scat. Types:   9   8 Mass=15.999404927 B-factor:0.000   
                 Charge=0.000000000  (-na-)  Polarization=0.802000000  [A^3] (considered a chargeless atom and no polarization)  Interactions: yes
                 Anisotropic factor:    0.000 [-] (Absolute), Radius:    0.640 [A], Framework-atom: yes (charge definition not found)
Pseudo Atom[  57] Name O6       Oxidation:          Element: O    pdb-name: O    Scat. Types:   9   8 Mass=15.999404927 B-factor:0.000   
                 Charge=0.000000000  (-na-)  Polarization=0.802000000  [A^3] (considered a chargeless atom and no polarization)  Interactions: yes
                 Anisotropic factor:    0.000 [-] (Absolute), Radius:    0.640 [A], Framework-atom: yes (charge definition not found)
Pseudo Atom[  58] Name O7       Oxidation:          Element: O    pdb-name: O    Scat. Types:   9   8 Mass=15.999404927 B-factor:0.000   
                 Charge=0.000000000  (-na-)  Polarization=0.802000000  [A^3] (considered a chargeless atom and no polarization)  Interactions: yes
                 Anisotropic factor:    0.000 [-] (Absolute), Radius:    0.640 [A], Framework-atom: yes (charge definition not found)
Pseudo Atom[  59] Name O8       Oxidation:          Element: O    pdb-name: O    Scat. Types:   9   8 Mass=15.999404927 B-factor:0.000   
                 Charge=0.000000000  (-na-)  Polarization=0.802000000  [A^3] (considered a chargeless atom and no polarization)  Interactions: yes
                 Anisotropic factor:    0.000 [-] (Absolute), Radius:    0.640 [A], Framework-atom: yes (charge definition not found)
Pseudo Atom[  60] Name O9       Oxidation:          Element: O    pdb-name: O    Scat. Types:   9   8 Mass=15.999404927 B-factor:0.000   
                 Charge=0.000000000  (-na-)  Polarization=0.802000000  [A^3] (considered a chargeless atom and no polarization)  Interactions: yes
                 Anisotropic factor:    0.000 [-] (Absolute), Radius:    0.640 [A], Framework-atom: yes (charge definition not found)
Pseudo Atom[  61] Name O10      Oxidation:          Element: O    pdb-name: O    Scat. Types:   9   8 Mass=15.999404927 B-factor:0.000   
                 Charge=0.000000000  (-na-)  Polarization=0.802000000  [A^3] (considered a chargeless atom and no polarization)  Interactions: yes
                 Anisotropic factor:    0.000 [-] (Absolute), Radius:    0.640 [A], Framework-atom: yes (charge definition not found)
Pseudo Atom[  62] Name O11      Oxidation:          Element: O    pdb-name: O    Scat. Types:   9   8 Mass=15.999404927 B-factor:0.000   
                 Charge=0.000000000  (-na-)  Polarization=0.802000000  [A^3] (considered a chargeless atom and no polarization)  Interactions: yes
                 Anisotropic factor:    0.000 [-] (Absolute), Radius:    0.640 [A], Framework-atom: yes (charge definition not found)
Pseudo Atom[  63] Name O12      Oxidation:          Element: O    pdb-name: O    Scat. Types:   9   8 Mass=15.999404927 B-factor:0.000   
                 Charge=0.000000000  (-na-)  Polarization=0.802000000  [A^3] (considered a chargeless atom and no polarization)  Interactions: yes
                 Anisotropic factor:    0.000 [-] (Absolute), Radius:    0.640 [A], Framework-atom: yes (charge definition not found)
Pseudo Atom[  64] Name O13      Oxidation:          Element: O    pdb-name: O    Scat. Types:   9   8 Mass=15.999404927 B-factor:0.000   
                 Charge=0.000000000  (-na-)  Polarization=0.802000000  [A^3] (considered a chargeless atom and no polarization)  Interactions: yes
                 Anisotropic factor:    0.000 [-] (Absolute), Radius:    0.640 [A], Framework-atom: yes (charge definition not found)
Pseudo Atom[  65] Name O14      Oxidation:          Element: O    pdb-name: O    Scat. Types:   9   8 Mass=15.999404927 B-factor:0.000   
                 Charge=0.000000000  (-na-)  Polarization=0.802000000  [A^3] (considered a chargeless atom and no polarization)  Interactions: yes
                 Anisotropic factor:    0.000 [-] (Absolute), Radius:    0.640 [A], Framework-atom: yes (charge definition not found)
Pseudo Atom[  66] Name O15      Oxidation:          Element: O    pdb-name: O    Scat. Types:   9   8 Mass=15.999404927 B-factor:0.000   
                 Charge=0.000000000  (-na-)  Polarization=0.802000000  [A^3] (considered a chargeless atom and no polarization)  Interactions: yes
                 Anisotropic factor:    0.000 [-] (Absolute), Radius:    0.640 [A], Framework-atom: yes (charge definition not found)
Pseudo Atom[  67] Name O16      Oxidation:          Element: O    pdb-name: O    Scat. Types:   9   8 Mass=15.999404927 B-factor:0.000   
                 Charge=0.000000000  (-na-)  Polarization=0.802000000  [A^3] (considered a chargeless atom and no polarization)  Interactions: yes
                 Anisotropic factor:    0.000 [-] (Absolute), Radius:    0.640 [A], Framework-atom: yes (charge definition not found)
Pseudo Atom[  68] Name O17      Oxidation:          Element: O    pdb-name: O    Scat. Types:   9   8 Mass=15.999404927 B-factor:0.000   
                 Charge=0.000000000  (-na-)  Polarization=0.802000000  [A^3] (considered a chargeless atom and no polarization)  Interactions: yes
                 Anisotropic factor:    0.000 [-] (Absolute), Radius:    0.640 [A], Framework-atom: yes (charge definition not found)
Pseudo Atom[  69] Name O18      Oxidation:          Element: O    pdb-name: O    Scat. Types:   9   8 Mass=15.999404927 B-factor:0.000   
                 Charge=0.000000000  (-na-)  Polarization=0.802000000  [A^3] (considered a chargeless atom and no polarization)  Interactions: yes
                 Anisotropic factor:    0.000 [-] (Absolute), Radius:    0.640 [A], Framework-atom: yes (charge definition not found)
Pseudo Atom[  70] Name O19      Oxidation:          Element: O    pdb-name: O    Scat. Types:   9   8 Mass=15.999404927 B-factor:0.000   
                 Charge=0.000000000  (-na-)  Polarization=0.802000000  [A^3] (considered a chargeless atom and no polarization)  Interactions: yes
                 Anisotropic factor:    0.000 [-] (Absolute), Radius:    0.640 [A], Framework-atom: yes (charge definition not found)
Pseudo Atom[  71] Name O20      Oxidation:          Element: O    pdb-name: O    Scat. Types:   9   8 Mass=15.999404927 B-factor:0.000   
                 Charge=0.000000000  (-na-)  Polarization=0.802000000  [A^3] (considered a chargeless atom and no polarization)  Interactions: yes
                 Anisotropic factor:    0.000 [-] (Absolute), Radius:    0.640 [A], Framework-atom: yes (charge definition not found)
Pseudo Atom[  72] Name O21      Oxidation:          Element: O    pdb-name: O    Scat. Types:   9   8 Mass=15.999404927 B-factor:0.000   
                 Charge=0.000000000  (-na-)  Polarization=0.802000000  [A^3] (considered a chargeless atom and no polarization)  Interactions: yes
                 Anisotropic factor:    0.000 [-] (Absolute), Radius:    0.640 [A], Framework-atom: yes (charge definition not found)
Pseudo Atom[  73] Name O22      Oxidation:          Element: O    pdb-name: O    Scat. Types:   9   8 Mass=15.999404927 B-factor:0.000   
                 Charge=0.000000000  (-na-)  Polarization=0.802000000  [A^3] (considered a chargeless atom and no polarization)  Interactions: yes
                 Anisotropic factor:    0.000 [-] (Absolute), Radius:    0.640 [A], Framework-atom: yes (charge definition not found)
Pseudo Atom[  74] Name O23      Oxidation:          Element: O    pdb-name: O    Scat. Types:   9   8 Mass=15.999404927 B-factor:0.000   
                 Charge=0.000000000  (-na-)  Polarization=0.802000000  [A^3] (considered a chargeless atom and no polarization)  Interactions: yes
                 Anisotropic factor:    0.000 [-] (Absolute), Radius:    0.640 [A], Framework-atom: yes (charge definition not found)
Pseudo Atom[  75] Name O24      Oxidation:          Element: O    pdb-name: O    Scat. Types:   9   8 Mass=15.999404927 B-factor:0.000   
                 Charge=0.000000000  (-na-)  Polarization=0.802000000  [A^3] (considered a chargeless atom and no polarization)  Interactions: yes
                 Anisotropic factor:    0.000 [-] (Absolute), Radius:    0.640 [A], Framework-atom: yes (charge definition not found)
Pseudo Atom[  76] Name O25      Oxidation:          Element: O    pdb-name: O    Scat. Types:   9   8 Mass=15.999404927 B-factor:0.000   
                 Charge=0.000000000  (-na-)  Polarization=0.802000000  [A^3] (considered a chargeless atom and no polarization)  Interactions: yes
                 Anisotropic factor:    0.000 [-] (Absolute), Radius:    0.640 [A], Framework-atom: yes (charge definition not found)
Pseudo Atom[  77] Name O26      Oxidation:          Element: O    pdb-name: O    Scat. Types:   9   8 Mass=15.999404927 B-factor:0.000   
                 Charge=0.000000000  (-na-)  Polarization=0.802000000  [A^3] (considered a chargeless atom and no polarization)  Interactions: yes
                 Anisotropic factor:    0.000 [-] (Absolute), Radius:    0.640 [A], Framework-atom: yes (charge definition not found)
Pseudo Atom[  78] Name O27      Oxidation:          Element: O    pdb-name: O    Scat. Types:   9   8 Mass=15.999404927 B-factor:0.000   
                 Charge=0.000000000  (-na-)  Polarization=0.802000000  [A^3] (considered a chargeless atom and no polarization)  Interactions: yes
                 Anisotropic factor:    0.000 [-] (Absolute), Radius:    0.640 [A], Framework-atom: yes (charge definition not found)
Pseudo Atom[  79] Name O28      Oxidation:          Element: O    pdb-name: O    Scat. Types:   9   8 Mass=15.999404927 B-factor:0.000   
                 Charge=0.000000000  (-na-)  Polarization=0.802000000  [A^3] (considered a chargeless atom and no polarization)  Interactions: yes
                 Anisotropic factor:    0.000 [-] (Absolute), Radius:    0.640 [A], Framework-atom: yes (charge definition not found)
Pseudo Atom[  80] Name O29      Oxidation:          Element: O    pdb-name: O    Scat. Types:   9   8 Mass=15.999404927 B-factor:0.000   
                 Charge=0.000000000  (-na-)  Polarization=0.802000000  [A^3] (considered a chargeless atom and no polarization)  Interactions: yes
                 Anisotropic factor:    0.000 [-] (Absolute), Radius:    0.640 [A], Framework-atom: yes (charge definition not found)
Pseudo Atom[  81] Name O30      Oxidation:          Element: O    pdb-name: O    Scat. Types:   9   8 Mass=15.999404927 B-factor:0.000   
                 Charge=0.000000000  (-na-)  Polarization=0.802000000  [A^3] (considered a chargeless atom and no polarization)  Interactions: yes
                 Anisotropic factor:    0.000 [-] (Absolute), Radius:    0.640 [A], Framework-atom: yes (charge definition not found)
Pseudo Atom[  82] Name O31      Oxidation:          Element: O    pdb-name: O    Scat. Types:   9   8 Mass=15.999404927 B-factor:0.000   
                 Charge=0.000000000  (-na-)  Polarization=0.802000000  [A^3] (considered a chargeless atom and no polarization)  Interactions: yes
                 Anisotropic factor:    0.000 [-] (Absolute), Radius:    0.640 [A], Framework-atom: yes (charge definition not found)
Pseudo Atom[  83] Name O32      Oxidation:          Element: O    pdb-name: O    Scat. Types:   9   8 Mass=15.999404927 B-factor:0.000   
                 Charge=0.000000000  (-na-)  Polarization=0.802000000  [A^3] (considered a chargeless atom and no polarization)  Interactions: yes
                 Anisotropic factor:    0.000 [-] (Absolute), Radius:    0.640 [A], Framework-atom: yes (charge definition not found)
Pseudo Atom[  84] Name O33      Oxidation:          Element: O    pdb-name: O    Scat. Types:   9   8 Mass=15.999404927 B-factor:0.000   
                 Charge=0.000000000  (-na-)  Polarization=0.802000000  [A^3] (considered a chargeless atom and no polarization)  Interactions: yes
                 Anisotropic factor:    0.000 [-] (Absolute), Radius:    0.640 [A], Framework-atom: yes (charge definition not found)
Pseudo Atom[  85] Name O34      Oxidation:          Element: O    pdb-name: O    Scat. Types:   9   8 Mass=15.999404927 B-factor:0.000   
                 Charge=0.000000000  (-na-)  Polarization=0.802000000  [A^3] (considered a chargeless atom and no polarization)  Interactions: yes
                 Anisotropic factor:    0.000 [-] (Absolute), Radius:    0.640 [A], Framework-atom: yes (charge definition not found)
Pseudo Atom[  86] Name O35      Oxidation:          Element: O    pdb-name: O    Scat. Types:   9   8 Mass=15.999404927 B-factor:0.000   
                 Charge=0.000000000  (-na-)  Polarization=0.802000000  [A^3] (considered a chargeless atom and no polarization)  Interactions: yes
                 Anisotropic factor:    0.000 [-] (Absolute), Radius:    0.640 [A], Framework-atom: yes (charge definition not found)
Pseudo Atom[  87] Name O36      Oxidation:          Element: O    pdb-name: O    Scat. Types:   9   8 Mass=15.999404927 B-factor:0.000   
                 Charge=0.000000000  (-na-)  Polarization=0.802000000  [A^3] (considered a chargeless atom and no polarization)  Interactions: yes
                 Anisotropic factor:    0.000 [-] (Absolute), Radius:    0.640 [A], Framework-atom: yes (charge definition not found)
Pseudo Atom[  88] Name C4       Oxidation:          Element: C    pdb-name: C    Scat. Types:   7   6 Mass=12.010735897 B-factor:0.000   
                 Charge=0.000000000  (-na-)  Polarization=1.760000000  [A^3] (considered a chargeless atom and no polarization)  Interactions: yes
                 Anisotropic factor:    0.000 [-] (Absolute), Radius:    0.750 [A], Framework-atom: yes (charge definition not found)
Pseudo Atom[  89] Name C5       Oxidation:          Element: C    pdb-name: C    Scat. Types:   7   6 Mass=12.010735897 B-factor:0.000   
                 Charge=0.000000000  (-na-)  Polarization=1.760000000  [A^3] (considered a chargeless atom and no polarization)  Interactions: yes
                 Anisotropic factor:    0.000 [-] (Absolute), Radius:    0.750 [A], Framework-atom: yes (charge definition not found)
Pseudo Atom[  90] Name C6       Oxidation:          Element: C    pdb-name: C    Scat. Types:   7   6 Mass=12.010735897 B-factor:0.000   
                 Charge=0.000000000  (-na-)  Polarization=1.760000000  [A^3] (considered a chargeless atom and no polarization)  Interactions: yes
                 Anisotropic factor:    0.000 [-] (Absolute), Radius:    0.750 [A], Framework-atom: yes (charge definition not found)
Pseudo Atom[  91] Name C7       Oxidation:          Element: C    pdb-name: C    Scat. Types:   7   6 Mass=12.010735897 B-factor:0.000   
                 Charge=0.000000000  (-na-)  Polarization=1.760000000  [A^3] (considered a chargeless atom and no polarization)  Interactions: yes
                 Anisotropic factor:    0.000 [-] (Absolute), Radius:    0.750 [A], Framework-atom: yes (charge definition not found)
Pseudo Atom[  92] Name C8       Oxidation:          Element: C    pdb-name: C    Scat. Types:   7   6 Mass=12.010735897 B-factor:0.000   
                 Charge=0.000000000  (-na-)  Polarization=1.760000000  [A^3] (considered a chargeless atom and no polarization)  Interactions: yes
                 Anisotropic factor:    0.000 [-] (Absolute), Radius:    0.750 [A], Framework-atom: yes (charge definition not found)
Pseudo Atom[  93] Name C9       Oxidation:          Element: C    pdb-name: C    Scat. Types:   7   6 Mass=12.010735897 B-factor:0.000   
                 Charge=0.000000000  (-na-)  Polarization=1.760000000  [A^3] (considered a chargeless atom and no polarization)  Interactions: yes
                 Anisotropic factor:    0.000 [-] (Absolute), Radius:    0.750 [A], Framework-atom: yes (charge definition not found)
Pseudo Atom[  94] Name C10      Oxidation:          Element: C    pdb-name: C    Scat. Types:   7   6 Mass=12.010735897 B-factor:0.000   
                 Charge=0.000000000  (-na-)  Polarization=1.760000000  [A^3] (considered a chargeless atom and no polarization)  Interactions: yes
                 Anisotropic factor:    0.000 [-] (Absolute), Radius:    0.750 [A], Framework-atom: yes (charge definition not found)
Pseudo Atom[  95] Name C11      Oxidation:          Element: C    pdb-name: C    Scat. Types:   7   6 Mass=12.010735897 B-factor:0.000   
                 Charge=0.000000000  (-na-)  Polarization=1.760000000  [A^3] (considered a chargeless atom and no polarization)  Interactions: yes
                 Anisotropic factor:    0.000 [-] (Absolute), Radius:    0.750 [A], Framework-atom: yes (charge definition not found)
Pseudo Atom[  96] Name C12      Oxidation:          Element: C    pdb-name: C    Scat. Types:   7   6 Mass=12.010735897 B-factor:0.000   
                 Charge=0.000000000  (-na-)  Polarization=1.760000000  [A^3] (considered a chargeless atom and no polarization)  Interactions: yes
                 Anisotropic factor:    0.000 [-] (Absolute), Radius:    0.750 [A], Framework-atom: yes (charge definition not found)
Pseudo Atom[  97] Name C13      Oxidation:          Element: C    pdb-name: C    Scat. Types:   7   6 Mass=12.010735897 B-factor:0.000   
                 Charge=0.000000000  (-na-)  Polarization=1.760000000  [A^3] (considered a chargeless atom and no polarization)  Interactions: yes
                 Anisotropic factor:    0.000 [-] (Absolute), Radius:    0.750 [A], Framework-atom: yes (charge definition not found)
Pseudo Atom[  98] Name C14      Oxidation:          Element: C    pdb-name: C    Scat. Types:   7   6 Mass=12.010735897 B-factor:0.000   
                 Charge=0.000000000  (-na-)  Polarization=1.760000000  [A^3] (considered a chargeless atom and no polarization)  Interactions: yes
                 Anisotropic factor:    0.000 [-] (Absolute), Radius:    0.750 [A], Framework-atom: yes (charge definition not found)
Pseudo Atom[  99] Name C15      Oxidation:          Element: C    pdb-name: C    Scat. Types:   7   6 Mass=12.010735897 B-factor:0.000   
                 Charge=0.000000000  (-na-)  Polarization=1.760000000  [A^3] (considered a chargeless atom and no polarization)  Interactions: yes
                 Anisotropic factor:    0.000 [-] (Absolute), Radius:    0.750 [A], Framework-atom: yes (charge definition not found)
Pseudo Atom[ 100] Name C16      Oxidation:          Element: C    pdb-name: C    Scat. Types:   7   6 Mass=12.010735897 B-factor:0.000   
                 Charge=0.000000000  (-na-)  Polarization=1.760000000  [A^3] (considered a chargeless atom and no polarization)  Interactions: yes
                 Anisotropic factor:    0.000 [-] (Absolute), Radius:    0.750 [A], Framework-atom: yes (charge definition not found)
Pseudo Atom[ 101] Name C17      Oxidation:          Element: C    pdb-name: C    Scat. Types:   7   6 Mass=12.010735897 B-factor:0.000   
                 Charge=0.000000000  (-na-)  Polarization=1.760000000  [A^3] (considered a chargeless atom and no polarization)  Interactions: yes
                 Anisotropic factor:    0.000 [-] (Absolute), Radius:    0.750 [A], Framework-atom: yes (charge definition not found)
Pseudo Atom[ 102] Name C18      Oxidation:          Element: C    pdb-name: C    Scat. Types:   7   6 Mass=12.010735897 B-factor:0.000   
                 Charge=0.000000000  (-na-)  Polarization=1.760000000  [A^3] (considered a chargeless atom and no polarization)  Interactions: yes
                 Anisotropic factor:    0.000 [-] (Absolute), Radius:    0.750 [A], Framework-atom: yes (charge definition not found)
Pseudo Atom[ 103] Name C19      Oxidation:          Element: C    pdb-name: C    Scat. Types:   7   6 Mass=12.010735897 B-factor:0.000   
                 Charge=0.000000000  (-na-)  Polarization=1.760000000  [A^3] (considered a chargeless atom and no polarization)  Interactions: yes
                 Anisotropic factor:    0.000 [-] (Absolute), Radius:    0.750 [A], Framework-atom: yes (charge definition not found)
Pseudo Atom[ 104] Name C20      Oxidation:          Element: C    pdb-name: C    Scat. Types:   7   6 Mass=12.010735897 B-factor:0.000   
                 Charge=0.000000000  (-na-)  Polarization=1.760000000  [A^3] (considered a chargeless atom and no polarization)  Interactions: yes
                 Anisotropic factor:    0.000 [-] (Absolute), Radius:    0.750 [A], Framework-atom: yes (charge definition not found)
Pseudo Atom[ 105] Name C21      Oxidation:          Element: C    pdb-name: C    Scat. Types:   7   6 Mass=12.010735897 B-factor:0.000   
                 Charge=0.000000000  (-na-)  Polarization=1.760000000  [A^3] (considered a chargeless atom and no polarization)  Interactions: yes
                 Anisotropic factor:    0.000 [-] (Absolute), Radius:    0.750 [A], Framework-atom: yes (charge definition not found)
Pseudo Atom[ 106] Name C22      Oxidation:          Element: C    pdb-name: C    Scat. Types:   7   6 Mass=12.010735897 B-factor:0.000   
                 Charge=0.000000000  (-na-)  Polarization=1.760000000  [A^3] (considered a chargeless atom and no polarization)  Interactions: yes
                 Anisotropic factor:    0.000 [-] (Absolute), Radius:    0.750 [A], Framework-atom: yes (charge definition not found)
Pseudo Atom[ 107] Name C23      Oxidation:          Element: C    pdb-name: C    Scat. Types:   7   6 Mass=12.010735897 B-factor:0.000   
                 Charge=0.000000000  (-na-)  Polarization=1.760000000  [A^3] (considered a chargeless atom and no polarization)  Interactions: yes
                 Anisotropic factor:    0.000 [-] (Absolute), Radius:    0.750 [A], Framework-atom: yes (charge definition not found)
Pseudo Atom[ 108] Name C24      Oxidation:          Element: C    pdb-name: C    Scat. Types:   7   6 Mass=12.010735897 B-factor:0.000   
                 Charge=0.000000000  (-na-)  Polarization=1.760000000  [A^3] (considered a chargeless atom and no polarization)  Interactions: yes
                 Anisotropic factor:    0.000 [-] (Absolute), Radius:    0.750 [A], Framework-atom: yes (charge definition not found)
Pseudo Atom[ 109] Name C25      Oxidation:          Element: C    pdb-name: C    Scat. Types:   7   6 Mass=12.010735897 B-factor:0.000   
                 Charge=0.000000000  (-na-)  Polarization=1.760000000  [A^3] (considered a chargeless atom and no polarization)  Interactions: yes
                 Anisotropic factor:    0.000 [-] (Absolute), Radius:    0.750 [A], Framework-atom: yes (charge definition not found)
Pseudo Atom[ 110] Name C26      Oxidation:          Element: C    pdb-name: C    Scat. Types:   7   6 Mass=12.010735897 B-factor:0.000   
                 Charge=0.000000000  (-na-)  Polarization=1.760000000  [A^3] (considered a chargeless atom and no polarization)  Interactions: yes
                 Anisotropic factor:    0.000 [-] (Absolute), Radius:    0.750 [A], Framework-atom: yes (charge definition not found)
Pseudo Atom[ 111] Name C27      Oxidation:          Element: C    pdb-name: C    Scat. Types:   7   6 Mass=12.010735897 B-factor:0.000   
                 Charge=0.000000000  (-na-)  Polarization=1.760000000  [A^3] (considered a chargeless atom and no polarization)  Interactions: yes
                 Anisotropic factor:    0.000 [-] (Absolute), Radius:    0.750 [A], Framework-atom: yes (charge definition not found)
Pseudo Atom[ 112] Name C28      Oxidation:          Element: C    pdb-name: C    Scat. Types:   7   6 Mass=12.010735897 B-factor:0.000   
                 Charge=0.000000000  (-na-)  Polarization=1.760000000  [A^3] (considered a chargeless atom and no polarization)  Interactions: yes
                 Anisotropic factor:    0.000 [-] (Absolute), Radius:    0.750 [A], Framework-atom: yes (charge definition not found)
Pseudo Atom[ 113] Name C29      Oxidation:          Element: C    pdb-name: C    Scat. Types:   7   6 Mass=12.010735897 B-factor:0.000   
                 Charge=0.000000000  (-na-)  Polarization=1.760000000  [A^3] (considered a chargeless atom and no polarization)  Interactions: yes
                 Anisotropic factor:    0.000 [-] (Absolute), Radius:    0.750 [A], Framework-atom: yes (charge definition not found)
Pseudo Atom[ 114] Name C30      Oxidation:          Element: C    pdb-name: C    Scat. Types:   7   6 Mass=12.010735897 B-factor:0.000   
                 Charge=0.000000000  (-na-)  Polarization=1.760000000  [A^3] (considered a chargeless atom and no polarization)  Interactions: yes
                 Anisotropic factor:    0.000 [-] (Absolute), Radius:    0.750 [A], Framework-atom: yes (charge definition not found)
Pseudo Atom[ 115] Name C31      Oxidation:          Element: C    pdb-name: C    Scat. Types:   7   6 Mass=12.010735897 B-factor:0.000   
                 Charge=0.000000000  (-na-)  Polarization=1.760000000  [A^3] (considered a chargeless atom and no polarization)  Interactions: yes
                 Anisotropic factor:    0.000 [-] (Absolute), Radius:    0.750 [A], Framework-atom: yes (charge definition not found)
Pseudo Atom[ 116] Name C32      Oxidation:          Element: C    pdb-name: C    Scat. Types:   7   6 Mass=12.010735897 B-factor:0.000   
                 Charge=0.000000000  (-na-)  Polarization=1.760000000  [A^3] (considered a chargeless atom and no polarization)  Interactions: yes
                 Anisotropic factor:    0.000 [-] (Absolute), Radius:    0.750 [A], Framework-atom: yes (charge definition not found)
Pseudo Atom[ 117] Name C33      Oxidation:          Element: C    pdb-name: C    Scat. Types:   7   6 Mass=12.010735897 B-factor:0.000   
                 Charge=0.000000000  (-na-)  Polarization=1.760000000  [A^3] (considered a chargeless atom and no polarization)  Interactions: yes
                 Anisotropic factor:    0.000 [-] (Absolute), Radius:    0.750 [A], Framework-atom: yes (charge definition not found)
Pseudo Atom[ 118] Name C34      Oxidation:          Element: C    pdb-name: C    Scat. Types:   7   6 Mass=12.010735897 B-factor:0.000   
                 Charge=0.000000000  (-na-)  Polarization=1.760000000  [A^3] (considered a chargeless atom and no polarization)  Interactions: yes
                 Anisotropic factor:    0.000 [-] (Absolute), Radius:    0.750 [A], Framework-atom: yes (charge definition not found)
Pseudo Atom[ 119] Name C35      Oxidation:          Element: C    pdb-name: C    Scat. Types:   7   6 Mass=12.010735897 B-factor:0.000   
                 Charge=0.000000000  (-na-)  Polarization=1.760000000  [A^3] (considered a chargeless atom and no polarization)  Interactions: yes
                 Anisotropic factor:    0.000 [-] (Absolute), Radius:    0.750 [A], Framework-atom: yes (charge definition not found)
Pseudo Atom[ 120] Name C36      Oxidation:          Element: C    pdb-name: C    Scat. Types:   7   6 Mass=12.010735897 B-factor:0.000   
                 Charge=0.000000000  (-na-)  Polarization=1.760000000  [A^3] (considered a chargeless atom and no polarization)  Interactions: yes
                 Anisotropic factor:    0.000 [-] (Absolute), Radius:    0.750 [A], Framework-atom: yes (charge definition not found)
Pseudo Atom[ 121] Name H2       Oxidation:          Element: H    pdb-name: H    Scat. Types:   1   1 Mass=1.007940754  B-factor:0.000   
                 Charge=0.000000000  (-na-)  Polarization=0.666793000  [A^3] (considered a chargeless atom and no polarization)  Interactions: yes
                 Anisotropic factor:    0.000 [-] (Absolute), Radius:    0.320 [A], Framework-atom: yes (charge definition not found)
Pseudo Atom[ 122] Name H3       Oxidation:          Element: H    pdb-name: H    Scat. Types:   1   1 Mass=1.007940754  B-factor:0.000   
                 Charge=0.000000000  (-na-)  Polarization=0.666793000  [A^3] (considered a chargeless atom and no polarization)  Interactions: yes
                 Anisotropic factor:    0.000 [-] (Absolute), Radius:    0.320 [A], Framework-atom: yes (charge definition not found)
Pseudo Atom[ 123] Name H4       Oxidation:          Element: H    pdb-name: H    Scat. Types:   1   1 Mass=1.007940754  B-factor:0.000   
                 Charge=0.000000000  (-na-)  Polarization=0.666793000  [A^3] (considered a chargeless atom and no polarization)  Interactions: yes
                 Anisotropic factor:    0.000 [-] (Absolute), Radius:    0.320 [A], Framework-atom: yes (charge definition not found)
Pseudo Atom[ 124] Name H5       Oxidation:          Element: H    pdb-name: H    Scat. Types:   1   1 Mass=1.007940754  B-factor:0.000   
                 Charge=0.000000000  (-na-)  Polarization=0.666793000  [A^3] (considered a chargeless atom and no polarization)  Interactions: yes
                 Anisotropic factor:    0.000 [-] (Absolute), Radius:    0.320 [A], Framework-atom: yes (charge definition not found)
Pseudo Atom[ 125] Name H6       Oxidation:          Element: H    pdb-name: H    Scat. Types:   1   1 Mass=1.007940754  B-factor:0.000   
                 Charge=0.000000000  (-na-)  Polarization=0.666793000  [A^3] (considered a chargeless atom and no polarization)  Interactions: yes
                 Anisotropic factor:    0.000 [-] (Absolute), Radius:    0.320 [A], Framework-atom: yes (charge definition not found)
Pseudo Atom[ 126] Name H7       Oxidation:          Element: H    pdb-name: H    Scat. Types:   1   1 Mass=1.007940754  B-factor:0.000   
                 Charge=0.000000000  (-na-)  Polarization=0.666793000  [A^3] (considered a chargeless atom and no polarization)  Interactions: yes
                 Anisotropic factor:    0.000 [-] (Absolute), Radius:    0.320 [A], Framework-atom: yes (charge definition not found)
Pseudo Atom[ 127] Name H8       Oxidation:          Element: H    pdb-name: H    Scat. Types:   1   1 Mass=1.007940754  B-factor:0.000   
                 Charge=0.000000000  (-na-)  Polarization=0.666793000  [A^3] (considered a chargeless atom and no polarization)  Interactions: yes
                 Anisotropic factor:    0.000 [-] (Absolute), Radius:    0.320 [A], Framework-atom: yes (charge definition not found)
Pseudo Atom[ 128] Name H9       Oxidation:          Element: H    pdb-name: H    Scat. Types:   1   1 Mass=1.007940754  B-factor:0.000   
                 Charge=0.000000000  (-na-)  Polarization=0.666793000  [A^3] (considered a chargeless atom and no polarization)  Interactions: yes
                 Anisotropic factor:    0.000 [-] (Absolute), Radius:    0.320 [A], Framework-atom: yes (charge definition not found)
Pseudo Atom[ 129] Name H10      Oxidation:          Element: H    pdb-name: H    Scat. Types:   1   1 Mass=1.007940754  B-factor:0.000   
                 Charge=0.000000000  (-na-)  Polarization=0.666793000  [A^3] (considered a chargeless atom and no polarization)  Interactions: yes
                 Anisotropic factor:    0.000 [-] (Absolute), Radius:    0.320 [A], Framework-atom: yes (charge definition not found)
Pseudo Atom[ 130] Name H11      Oxidation:          Element: H    pdb-name: H    Scat. Types:   1   1 Mass=1.007940754  B-factor:0.000   
                 Charge=0.000000000  (-na-)  Polarization=0.666793000  [A^3] (considered a chargeless atom and no polarization)  Interactions: yes
                 Anisotropic factor:    0.000 [-] (Absolute), Radius:    0.320 [A], Framework-atom: yes (charge definition not found)
Pseudo Atom[ 131] Name H12      Oxidation:          Element: H    pdb-name: H    Scat. Types:   1   1 Mass=1.007940754  B-factor:0.000   
                 Charge=0.000000000  (-na-)  Polarization=0.666793000  [A^3] (considered a chargeless atom and no polarization)  Interactions: yes
                 Anisotropic factor:    0.000 [-] (Absolute), Radius:    0.320 [A], Framework-atom: yes (charge definition not found)


Forcefield: GenericMOFs
===========================================================================
Minimal distance: 1
CutOff VDW : 12.800000 (163.840000)
CutOff VDW switching on: 11.520000 (132.710400)
CutOff charge-charge : 12.000000 (144.000000)
CutOff charge-charge switching on: 7.800000 (60.840000)
CutOff charge-bonddipole : 12.000000 (144.000000)
CutOff charge-bondipole switching on: 8.400000 (70.560000)
CutOff bonddipole-bonddipole : 12.000000 (144.000000)
CutOff bonddipole-bondipole switching on: 9.000000 (81.000000)
Polarization is neglected
All potentials are shifted to zero at the Cutoff

General mixing rule: Lorentz-Berthelot mixing rules are used FIRST for cross terms
0 cross terms are overwritten using the individual mixing rules from the file 'force_field_mixing_rules.def'
and then 0 terms are overwritten using the specific interactions from the file 'force_field.def'

The force field and all the interactions:
     He -      He [LENNARD_JONES] p_0/k_B:  10.90000 [K], p_1: 2.64000 [A], shift/k_B:  -0.00335596 [K], tailcorrection: no
     He - CH4_sp3 [LENNARD_JONES] p_0/k_B:  41.56501 [K], p_1: 3.18000 [A], shift/k_B:  -0.03908307 [K], tailcorrection: no
     He - CH3_sp3 [LENNARD_JONES] p_0/k_B:  34.31035 [K], p_1: 3.20000 [A], shift/k_B:  -0.03349802 [K], tailcorrection: no
     He - CH2_sp3 [LENNARD_JONES] p_0/k_B:  24.70627 [K], p_1: 3.30000 [A], shift/k_B:  -0.02901106 [K], tailcorrection: no
     He -  CH_sp3 [LENNARD_JONES] p_0/k_B:  13.61249 [K], p_1: 3.65500 [A], shift/k_B:  -0.02950032 [K], tailcorrection: no
     He -   C_sp3 [LENNARD_JONES] p_0/k_B:   2.95296 [K], p_1: 4.51000 [A], shift/k_B:  -0.02255724 [K], tailcorrection: no
     He -    H_h2 [ZERO_POTENTIAL]
     He -   H_com [LENNARD_JONES] p_0/k_B:  20.00075 [K], p_1: 2.79900 [A], shift/k_B:  -0.00874614 [K], tailcorrection: no
     He -   C_co2 [LENNARD_JONES] p_0/k_B:  18.06294 [K], p_1: 2.69250 [A], shift/k_B:  -0.00625872 [K], tailcorrection: no
     He -   O_co2 [LENNARD_JONES] p_0/k_B:  30.55837 [K], p_1: 2.82850 [A], shift/k_B:  -0.01423039 [K], tailcorrection: no
     He -    O_o2 [LENNARD_JONES] p_0/k_B:  22.91120 [K], p_1: 2.83657 [A], shift/k_B:  -0.01085331 [K], tailcorrection: no
     He -   O_com [LENNARD_JONES] p_0/k_B:  22.91120 [K], p_1: 2.83657 [A], shift/k_B:  -0.01085331 [K], tailcorrection: no
     He -    N_n2 [LENNARD_JONES] p_0/k_B:  20.43155 [K], p_1: 2.97300 [A], shift/k_B:  -0.01282929 [K], tailcorrection: no
     He -   N_com [ZERO_POTENTIAL]
     He -      Ar [LENNARD_JONES] p_0/k_B:  36.77449 [K], p_1: 3.01000 [A], shift/k_B:  -0.02486980 [K], tailcorrection: no
     He -      Ow [LENNARD_JONES] p_0/k_B:  31.25699 [K], p_1: 2.86850 [A], shift/k_B:  -0.01583513 [K], tailcorrection: no
     He -      Hw [LENNARD_JONES] p_0/k_B:   9.13090 [K], p_1: 2.74321 [A], shift/k_B:  -0.00353856 [K], tailcorrection: no
     He -  C_benz [LENNARD_JONES] p_0/k_B:  18.29289 [K], p_1: 3.12000 [A], shift/k_B:  -0.01534331 [K], tailcorrection: no
     He -  H_benz [LENNARD_JONES] p_0/k_B:  16.65548 [K], p_1: 2.50000 [A], shift/k_B:  -0.00369805 [K], tailcorrection: no
     He -   N_dmf [LENNARD_JONES] p_0/k_B:  29.52965 [K], p_1: 2.92000 [A], shift/k_B:  -0.01664540 [K], tailcorrection: no
     He -  Co_dmf [LENNARD_JONES] p_0/k_B:  23.34524 [K], p_1: 3.17000 [A], shift/k_B:  -0.02154040 [K], tailcorrection: no
     He -  Cm_dmf [LENNARD_JONES] p_0/k_B:  29.52965 [K], p_1: 3.22000 [A], shift/k_B:  -0.02992840 [K], tailcorrection: no
     He -   O_dmf [LENNARD_JONES] p_0/k_B:  33.01515 [K], p_1: 2.80000 [A], shift/k_B:  -0.01446818 [K], tailcorrection: no
     He -   H_dmf [LENNARD_JONES] p_0/k_B:   9.33809 [K], p_1: 2.42000 [A], shift/k_B:  -0.00170581 [K], tailcorrection: no
     He -      Na [LENNARD_JONES] p_0/k_B:  20.60452 [K], p_1: 2.95128 [A], shift/k_B:  -0.01238112 [K], tailcorrection: no
     He -      Cl [LENNARD_JONES] p_0/k_B:  39.41987 [K], p_1: 3.07966 [A], shift/k_B:  -0.03058072 [K], tailcorrection: no
     He -      Kr [LENNARD_JONES] p_0/k_B:  42.58826 [K], p_1: 3.13800 [A], shift/k_B:  -0.03697545 [K], tailcorrection: no
     He -      Xe [LENNARD_JONES] p_0/k_B:  49.08055 [K], p_1: 3.37000 [A], shift/k_B:  -0.06536485 [K], tailcorrection: no
     He -     Cu1 [LENNARD_JONES] p_0/k_B:   5.23694 [K], p_1: 2.87685 [A], shift/k_B:  -0.00269973 [K], tailcorrection: no
     He -      O1 [LENNARD_JONES] p_0/k_B:  22.91120 [K], p_1: 2.83657 [A], shift/k_B:  -0.01085331 [K], tailcorrection: no
     He -      C1 [LENNARD_JONES] p_0/k_B:  22.83928 [K], p_1: 3.05649 [A], shift/k_B:  -0.01693340 [K], tailcorrection: no
     He -      C2 [LENNARD_JONES] p_0/k_B:  22.83928 [K], p_1: 3.05649 [A], shift/k_B:  -0.01693340 [K], tailcorrection: no
     He -      C3 [LENNARD_JONES] p_0/k_B:  22.83928 [K], p_1: 3.05649 [A], shift/k_B:  -0.01693340 [K], tailcorrection: no
     He -      H1 [LENNARD_JONES] p_0/k_B:   9.13090 [K], p_1: 2.74321 [A], shift/k_B:  -0.00353856 [K], tailcorrection: no
     He -     Cu2 [LENNARD_JONES] p_0/k_B:   5.23694 [K], p_1: 2.87685 [A], shift/k_B:  -0.00269973 [K], tailcorrection: no
     He -     Cu3 [LENNARD_JONES] p_0/k_B:   5.23694 [K], p_1: 2.87685 [A], shift/k_B:  -0.00269973 [K], tailcorrection: no
     He -     Cu4 [LENNARD_JONES] p_0/k_B:   5.23694 [K], p_1: 2.87685 [A], shift/k_B:  -0.00269973 [K], tailcorrection: no
     He -     Cu5 [LENNARD_JONES] p_0/k_B:   5.23694 [K], p_1: 2.87685 [A], shift/k_B:  -0.00269973 [K], tailcorrection: no
     He -     Cu6 [LENNARD_JONES] p_0/k_B:   5.23694 [K], p_1: 2.87685 [A], shift/k_B:  -0.00269973 [K], tailcorrection: no
     He -     Cu7 [LENNARD_JONES] p_0/k_B:   5.23694 [K], p_1: 2.87685 [A], shift/k_B:  -0.00269973 [K], tailcorrection: no
     He -     Cu8 [LENNARD_JONES] p_0/k_B:   5.23694 [K], p_1: 2.87685 [A], shift/k_B:  -0.00269973 [K], tailcorrection: no
     He -     Cu9 [LENNARD_JONES] p_0/k_B:   5.23694 [K], p_1: 2.87685 [A], shift/k_B:  -0.00269973 [K], tailcorrection: no
     He -    Cu10 [LENNARD_JONES] p_0/k_B:   5.23694 [K], p_1: 2.87685 [A], shift/k_B:  -0.00269973 [K], tailcorrection: no
     He -    Cu11 [LENNARD_JONES] p_0/k_B:   5.23694 [K], p_1: 2.87685 [A], shift/k_B:  -0.00269973 [K], tailcorrection: no
     He -    Cu12 [LENNARD_JONES] p_0/k_B:   5.23694 [K], p_1: 2.87685 [A], shift/k_B:  -0.00269973 [K], tailcorrection: no
     He -    Cu13 [LENNARD_JONES] p_0/k_B:   5.23694 [K], p_1: 2.87685 [A], shift/k_B:  -0.00269973 [K], tailcorrection: no
     He -    Cu14 [LENNARD_JONES] p_0/k_B:   5.23694 [K], p_1: 2.87685 [A], shift/k_B:  -0.00269973 [K], tailcorrection: no
     He -    Cu15 [LENNARD_JONES] p_0/k_B:   5.23694 [K], p_1: 2.87685 [A], shift/k_B:  -0.00269973 [K], tailcorrection: no
     He -    Cu16 [LENNARD_JONES] p_0/k_B:   5.23694 [K], p_1: 2.87685 [A], shift/k_B:  -0.00269973 [K], tailcorrection: no
     He -    Cu17 [LENNARD_JONES] p_0/k_B:   5.23694 [K], p_1: 2.87685 [A], shift/k_B:  -0.00269973 [K], tailcorrection: no
     He -    Cu18 [LENNARD_JONES] p_0/k_B:   5.23694 [K], p_1: 2.87685 [A], shift/k_B:  -0.00269973 [K], tailcorrection: no
     He -      O2 [LENNARD_JONES] p_0/k_B:  22.91120 [K], p_1: 2.83657 [A], shift/k_B:  -0.01085331 [K], tailcorrection: no
     He -      O3 [LENNARD_JONES] p_0/k_B:  22.91120 [K], p_1: 2.83657 [A], shift/k_B:  -0.01085331 [K], tailcorrection: no
     He -      O4 [LENNARD_JONES] p_0/k_B:  22.91120 [K], p_1: 2.83657 [A], shift/k_B:  -0.01085331 [K], tailcorrection: no
     He -      O5 [LENNARD_JONES] p_0/k_B:  22.91120 [K], p_1: 2.83657 [A], shift/k_B:  -0.01085331 [K], tailcorrection: no
     He -      O6 [LENNARD_JONES] p_0/k_B:  22.91120 [K], p_1: 2.83657 [A], shift/k_B:  -0.01085331 [K], tailcorrection: no
     He -      O7 [LENNARD_JONES] p_0/k_B:  22.91120 [K], p_1: 2.83657 [A], shift/k_B:  -0.01085331 [K], tailcorrection: no
     He -      O8 [LENNARD_JONES] p_0/k_B:  22.91120 [K], p_1: 2.83657 [A], shift/k_B:  -0.01085331 [K], tailcorrection: no
     He -      O9 [LENNARD_JONES] p_0/k_B:  22.91120 [K], p_1: 2.83657 [A], shift/k_B:  -0.01085331 [K], tailcorrection: no
     He -     O10 [LENNARD_JONES] p_0/k_B:  22.91120 [K], p_1: 2.83657 [A], shift/k_B:  -0.01085331 [K], tailcorrection: no
     He -     O11 [LENNARD_JONES] p_0/k_B:  22.91120 [K], p_1: 2.83657 [A], shift/k_B:  -0.01085331 [K], tailcorrection: no
     He -     O12 [LENNARD_JONES] p_0/k_B:  22.91120 [K], p_1: 2.83657 [A], shift/k_B:  -0.01085331 [K], tailcorrection: no
     He -     O13 [LENNARD_JONES] p_0/k_B:  22.91120 [K], p_1: 2.83657 [A], shift/k_B:  -0.01085331 [K], tailcorrection: no
     He -     O14 [LENNARD_JONES] p_0/k_B:  22.91120 [K], p_1: 2.83657 [A], shift/k_B:  -0.01085331 [K], tailcorrection: no
     He -     O15 [LENNARD_JONES] p_0/k_B:  22.91120 [K], p_1: 2.83657 [A], shift/k_B:  -0.01085331 [K], tailcorrection: no
     He -     O16 [LENNARD_JONES] p_0/k_B:  22.91120 [K], p_1: 2.83657 [A], shift/k_B:  -0.01085331 [K], tailcorrection: no
     He -     O17 [LENNARD_JONES] p_0/k_B:  22.91120 [K], p_1: 2.83657 [A], shift/k_B:  -0.01085331 [K], tailcorrection: no
     He -     O18 [LENNARD_JONES] p_0/k_B:  22.91120 [K], p_1: 2.83657 [A], shift/k_B:  -0.01085331 [K], tailcorrection: no
     He -     O19 [LENNARD_JONES] p_0/k_B:  22.91120 [K], p_1: 2.83657 [A], shift/k_B:  -0.01085331 [K], tailcorrection: no
     He -     O20 [LENNARD_JONES] p_0/k_B:  22.91120 [K], p_1: 2.83657 [A], shift/k_B:  -0.01085331 [K], tailcorrection: no
     He -     O21 [LENNARD_JONES] p_0/k_B:  22.91120 [K], p_1: 2.83657 [A], shift/k_B:  -0.01085331 [K], tailcorrection: no
     He -     O22 [LENNARD_JONES] p_0/k_B:  22.91120 [K], p_1: 2.83657 [A], shift/k_B:  -0.01085331 [K], tailcorrection: no
     He -     O23 [LENNARD_JONES] p_0/k_B:  22.91120 [K], p_1: 2.83657 [A], shift/k_B:  -0.01085331 [K], tailcorrection: no
     He -     O24 [LENNARD_JONES] p_0/k_B:  22.91120 [K], p_1: 2.83657 [A], shift/k_B:  -0.01085331 [K], tailcorrection: no
     He -     O25 [LENNARD_JONES] p_0/k_B:  22.91120 [K], p_1: 2.83657 [A], shift/k_B:  -0.01085331 [K], tailcorrection: no
     He -     O26 [LENNARD_JONES] p_0/k_B:  22.91120 [K], p_1: 2.83657 [A], shift/k_B:  -0.01085331 [K], tailcorrection: no
     He -     O27 [LENNARD_JONES] p_0/k_B:  22.91120 [K], p_1: 2.83657 [A], shift/k_B:  -0.01085331 [K], tailcorrection: no
     He -     O28 [LENNARD_JONES] p_0/k_B:  22.91120 [K], p_1: 2.83657 [A], shift/k_B:  -0.01085331 [K], tailcorrection: no
     He -     O29 [LENNARD_JONES] p_0/k_B:  22.91120 [K], p_1: 2.83657 [A], shift/k_B:  -0.01085331 [K], tailcorrection: no
     He -     O30 [LENNARD_JONES] p_0/k_B:  22.91120 [K], p_1: 2.83657 [A], shift/k_B:  -0.01085331 [K], tailcorrection: no
     He -     O31 [LENNARD_JONES] p_0/k_B:  22.91120 [K], p_1: 2.83657 [A], shift/k_B:  -0.01085331 [K], tailcorrection: no
     He -     O32 [LENNARD_JONES] p_0/k_B:  22.91120 [K], p_1: 2.83657 [A], shift/k_B:  -0.01085331 [K], tailcorrection: no
     He -     O33 [LENNARD_JONES] p_0/k_B:  22.91120 [K], p_1: 2.83657 [A], shift/k_B:  -0.01085331 [K], tailcorrection: no
     He -     O34 [LENNARD_JONES] p_0/k_B:  22.91120 [K], p_1: 2.83657 [A], shift/k_B:  -0.01085331 [K], tailcorrection: no
     He -     O35 [LENNARD_JONES] p_0/k_B:  22.91120 [K], p_1: 2.83657 [A], shift/k_B:  -0.01085331 [K], tailcorrection: no
     He -     O36 [LENNARD_JONES] p_0/k_B:  22.91120 [K], p_1: 2.83657 [A], shift/k_B:  -0.01085331 [K], tailcorrection: no
     He -      C4 [LENNARD_JONES] p_0/k_B:  22.83928 [K], p_1: 3.05649 [A], shift/k_B:  -0.01693340 [K], tailcorrection: no
     He -      C5 [LENNARD_JONES] p_0/k_B:  22.83928 [K], p_1: 3.05649 [A], shift/k_B:  -0.01693340 [K], tailcorrection: no
     He -      C6 [LENNARD_JONES] p_0/k_B:  22.83928 [K], p_1: 3.05649 [A], shift/k_B:  -0.01693340 [K], tailcorrection: no
     He -      C7 [LENNARD_JONES] p_0/k_B:  22.83928 [K], p_1: 3.05649 [A], shift/k_B:  -0.01693340 [K], tailcorrection: no
     He -      C8 [LENNARD_JONES] p_0/k_B:  22.83928 [K], p_1: 3.05649 [A], shift/k_B:  -0.01693340 [K], tailcorrection: no
     He -      C9 [LENNARD_JONES] p_0/k_B:  22.83928 [K], p_1: 3.05649 [A], shift/k_B:  -0.01693340 [K], tailcorrection: no
     He -     C10 [LENNARD_JONES] p_0/k_B:  22.83928 [K], p_1: 3.05649 [A], shift/k_B:  -0.01693340 [K], tailcorrection: no
     He -     C11 [LENNARD_JONES] p_0/k_B:  22.83928 [K], p_1: 3.05649 [A], shift/k_B:  -0.01693340 [K], tailcorrection: no
     He -     C12 [LENNARD_JONES] p_0/k_B:  22.83928 [K], p_1: 3.05649 [A], shift/k_B:  -0.01693340 [K], tailcorrection: no
     He -     C13 [LENNARD_JONES] p_0/k_B:  22.83928 [K], p_1: 3.05649 [A], shift/k_B:  -0.01693340 [K], tailcorrection: no
     He -     C14 [LENNARD_JONES] p_0/k_B:  22.83928 [K], p_1: 3.05649 [A], shift/k_B:  -0.01693340 [K], tailcorrection: no
     He -     C15 [LENNARD_JONES] p_0/k_B:  22.83928 [K], p_1: 3.05649 [A], shift/k_B:  -0.01693340 [K], tailcorrection: no
     He -     C16 [LENNARD_JONES] p_0/k_B:  22.83928 [K], p_1: 3.05649 [A], shift/k_B:  -0.01693340 [K], tailcorrection: no
     He -     C17 [LENNARD_JONES] p_0/k_B:  22.83928 [K], p_1: 3.05649 [A], shift/k_B:  -0.01693340 [K], tailcorrection: no
     He -     C18 [LENNARD_JONES] p_0/k_B:  22.83928 [K], p_1: 3.05649 [A], shift/k_B:  -0.01693340 [K], tailcorrection: no
     He -     C19 [LENNARD_JONES] p_0/k_B:  22.83928 [K], p_1: 3.05649 [A], shift/k_B:  -0.01693340 [K], tailcorrection: no
     He -     C20 [LENNARD_JONES] p_0/k_B:  22.83928 [K], p_1: 3.05649 [A], shift/k_B:  -0.01693340 [K], tailcorrection: no
     He -     C21 [LENNARD_JONES] p_0/k_B:  22.83928 [K], p_1: 3.05649 [A], shift/k_B:  -0.01693340 [K], tailcorrection: no
     He -     C22 [LENNARD_JONES] p_0/k_B:  22.83928 [K], p_1: 3.05649 [A], shift/k_B:  -0.01693340 [K], tailcorrection: no
     He -     C23 [LENNARD_JONES] p_0/k_B:  22.83928 [K], p_1: 3.05649 [A], shift/k_B:  -0.01693340 [K], tailcorrection: no
     He -     C24 [LENNARD_JONES] p_0/k_B:  22.83928 [K], p_1: 3.05649 [A], shift/k_B:  -0.01693340 [K], tailcorrection: no
     He -     C25 [LENNARD_JONES] p_0/k_B:  22.83928 [K], p_1: 3.05649 [A], shift/k_B:  -0.01693340 [K], tailcorrection: no
     He -     C26 [LENNARD_JONES] p_0/k_B:  22.83928 [K], p_1: 3.05649 [A], shift/k_B:  -0.01693340 [K], tailcorrection: no
     He -     C27 [LENNARD_JONES] p_0/k_B:  22.83928 [K], p_1: 3.05649 [A], shift/k_B:  -0.01693340 [K], tailcorrection: no
     He -     C28 [LENNARD_JONES] p_0/k_B:  22.83928 [K], p_1: 3.05649 [A], shift/k_B:  -0.01693340 [K], tailcorrection: no
     He -     C29 [LENNARD_JONES] p_0/k_B:  22.83928 [K], p_1: 3.05649 [A], shift/k_B:  -0.01693340 [K], tailcorrection: no
     He -     C30 [LENNARD_JONES] p_0/k_B:  22.83928 [K], p_1: 3.05649 [A], shift/k_B:  -0.01693340 [K], tailcorrection: no
     He -     C31 [LENNARD_JONES] p_0/k_B:  22.83928 [K], p_1: 3.05649 [A], shift/k_B:  -0.01693340 [K], tailcorrection: no
     He -     C32 [LENNARD_JONES] p_0/k_B:  22.83928 [K], p_1: 3.05649 [A], shift/k_B:  -0.01693340 [K], tailcorrection: no
     He -     C33 [LENNARD_JONES] p_0/k_B:  22.83928 [K], p_1: 3.05649 [A], shift/k_B:  -0.01693340 [K], tailcorrection: no
     He -     C34 [LENNARD_JONES] p_0/k_B:  22.83928 [K], p_1: 3.05649 [A], shift/k_B:  -0.01693340 [K], tailcorrection: no
     He -     C35 [LENNARD_JONES] p_0/k_B:  22.83928 [K], p_1: 3.05649 [A], shift/k_B:  -0.01693340 [K], tailcorrection: no
     He -     C36 [LENNARD_JONES] p_0/k_B:  22.83928 [K], p_1: 3.05649 [A], shift/k_B:  -0.01693340 [K], tailcorrection: no
     He -      H2 [LENNARD_JONES] p_0/k_B:   9.13090 [K], p_1: 2.74321 [A], shift/k_B:  -0.00353856 [K], tailcorrection: no
     He -      H3 [LENNARD_JONES] p_0/k_B:   9.13090 [K], p_1: 2.74321 [A], shift/k_B:  -0.00353856 [K], tailcorrection: no
     He -      H4 [LENNARD_JONES] p_0/k_B:   9.13090 [K], p_1: 2.74321 [A], shift/k_B:  -0.00353856 [K], tailcorrection: no
     He -      H5 [LENNARD_JONES] p_0/k_B:   9.13090 [K], p_1: 2.74321 [A], shift/k_B:  -0.00353856 [K], tailcorrection: no
     He -      H6 [LENNARD_JONES] p_0/k_B:   9.13090 [K], p_1: 2.74321 [A], shift/k_B:  -0.00353856 [K], tailcorrection: no
     He -      H7 [LENNARD_JONES] p_0/k_B:   9.13090 [K], p_1: 2.74321 [A], shift/k_B:  -0.00353856 [K], tailcorrection: no
     He -      H8 [LENNARD_JONES] p_0/k_B:   9.13090 [K], p_1: 2.74321 [A], shift/k_B:  -0.00353856 [K], tailcorrection: no
[...]
	Block[ 1]            0.00000 [K]
	Block[ 2]            0.00000 [K]
	Block[ 3]            0.00000 [K]
	Block[ 4]            0.00000 [K]
	------------------------------------------------------------------------------
	Average              0.00000 [K] +/-            0.00000 [K]

Average Cation Bend angle inversion energy:
===========================================
	Block[ 0]            0.00000 [K]
	Block[ 1]            0.00000 [K]
	Block[ 2]            0.00000 [K]
	Block[ 3]            0.00000 [K]
	Block[ 4]            0.00000 [K]
	------------------------------------------------------------------------------
	Average              0.00000 [K] +/-            0.00000 [K]

Average Cation Torsion energy:
==============================
	Block[ 0]            0.00000 [K]
	Block[ 1]            0.00000 [K]
	Block[ 2]            0.00000 [K]
	Block[ 3]            0.00000 [K]
	Block[ 4]            0.00000 [K]
	------------------------------------------------------------------------------
	Average              0.00000 [K] +/-            0.00000 [K]

Average Cation Improper Torsion energy:
=======================================
	Block[ 0]            0.00000 [K]
	Block[ 1]            0.00000 [K]
	Block[ 2]            0.00000 [K]
	Block[ 3]            0.00000 [K]
	Block[ 4]            0.00000 [K]
	------------------------------------------------------------------------------
	Average              0.00000 [K] +/-            0.00000 [K]

Average Cation Bond-Bond cross term energy:
=================================================
	Block[ 0]            0.00000 [K]
	Block[ 1]            0.00000 [K]
	Block[ 2]            0.00000 [K]
	Block[ 3]            0.00000 [K]
	Block[ 4]            0.00000 [K]
	------------------------------------------------------------------------------
	Average              0.00000 [K] +/-            0.00000 [K]

Average Cation Bend-Bend cross term energy:
===========================================
	Block[ 0]            0.00000 [K]
	Block[ 1]            0.00000 [K]
	Block[ 2]            0.00000 [K]
	Block[ 3]            0.00000 [K]
	Block[ 4]            0.00000 [K]
	------------------------------------------------------------------------------
	Average              0.00000 [K] +/-            0.00000 [K]

Average Cation Bond-Bend cross term energy:
==============================================
	Block[ 0]            0.00000 [K]
	Block[ 1]            0.00000 [K]
	Block[ 2]            0.00000 [K]
	Block[ 3]            0.00000 [K]
	Block[ 4]            0.00000 [K]
	------------------------------------------------------------------------------
	Average              0.00000 [K] +/-            0.00000 [K]

Average Cation Bond-Torsion cross term energy:
==============================================
	Block[ 0]            0.00000 [K]
	Block[ 1]            0.00000 [K]
	Block[ 2]            0.00000 [K]
	Block[ 3]            0.00000 [K]
	Block[ 4]            0.00000 [K]
	------------------------------------------------------------------------------
	Average              0.00000 [K] +/-            0.00000 [K]

Average Cation Bend-Torsion cross term energy:
==============================================
	Block[ 0]            0.00000 [K]
	Block[ 1]            0.00000 [K]
	Block[ 2]            0.00000 [K]
	Block[ 3]            0.00000 [K]
	Block[ 4]            0.00000 [K]
	------------------------------------------------------------------------------
	Average              0.00000 [K] +/-            0.00000 [K]

Average Cation Intra Van der Waals energy:
==========================================
	Block[ 0]            0.00000 [K]
	Block[ 1]            0.00000 [K]
	Block[ 2]            0.00000 [K]
	Block[ 3]            0.00000 [K]
	Block[ 4]            0.00000 [K]
	------------------------------------------------------------------------------
	Average              0.00000 [K] +/-            0.00000 [K]

Average Cation Intra charge-charge Coulomb energy:
====================================
	Block[ 0]            0.00000 [K]
	Block[ 1]            0.00000 [K]
	Block[ 2]            0.00000 [K]
	Block[ 3]            0.00000 [K]
	Block[ 4]            0.00000 [K]
	------------------------------------------------------------------------------
	Average              0.00000 [K] +/-            0.00000 [K]

Average Cation Intra charge-bonddipole Coulomb energy:
====================================
	Block[ 0]            0.00000 [K]
	Block[ 1]            0.00000 [K]
	Block[ 2]            0.00000 [K]
	Block[ 3]            0.00000 [K]
	Block[ 4]            0.00000 [K]
	------------------------------------------------------------------------------
	Average              0.00000 [K] +/-            0.00000 [K]

Average Cation Intra bonddipole-bonddipole Coulomb energy:
====================================
	Block[ 0]            0.00000 [K]
	Block[ 1]            0.00000 [K]
	Block[ 2]            0.00000 [K]
	Block[ 3]            0.00000 [K]
	Block[ 4]            0.00000 [K]
	------------------------------------------------------------------------------
	Average              0.00000 [K] +/-            0.00000 [K]

Average Host-Host energy:
=========================
	Block[ 0] 0.00000            Van der Waals: 0.00000            Coulomb: 0.00000            [K]
	Block[ 1] 0.00000            Van der Waals: 0.00000            Coulomb: 0.00000            [K]
	Block[ 2] 0.00000            Van der Waals: 0.00000            Coulomb: 0.00000            [K]
	Block[ 3] 0.00000            Van der Waals: 0.00000            Coulomb: 0.00000            [K]
	Block[ 4] 0.00000            Van der Waals: 0.00000            Coulomb: 0.00000            [K]
	------------------------------------------------------------------------------
	Average   0.00000            Van der Waals: 0.000000           Coulomb: 0.00000            [K]
	      +/- 0.00000                       +/- 0.000000                +/- 0.00000            [K]

Average Adsorbate-Adsorbate energy:
===================================
	Block[ 0] 0.00000            Van der Waals: 0.00000            Coulomb: 0.00000            [K]
	Block[ 1] 0.00000            Van der Waals: 0.00000            Coulomb: 0.00000            [K]
	Block[ 2] 0.00000            Van der Waals: 0.00000            Coulomb: 0.00000            [K]
	Block[ 3] 0.00000            Van der Waals: 0.00000            Coulomb: 0.00000            [K]
	Block[ 4] 0.00000            Van der Waals: 0.00000            Coulomb: 0.00000            [K]
	------------------------------------------------------------------------------
	Average   0.00000            Van der Waals: 0.000000           Coulomb: 0.00000            [K]
	      +/- 0.00000                       +/- 0.000000                +/- 0.00000            [K]

Average Cation-Cation energy:
=============================
	Block[ 0] 0.00000            Van der Waals: 0.00000            Coulomb: 0.00000            [K]
	Block[ 1] 0.00000            Van der Waals: 0.00000            Coulomb: 0.00000            [K]
	Block[ 2] 0.00000            Van der Waals: 0.00000            Coulomb: 0.00000            [K]
	Block[ 3] 0.00000            Van der Waals: 0.00000            Coulomb: 0.00000            [K]
	Block[ 4] 0.00000            Van der Waals: 0.00000            Coulomb: 0.00000            [K]
	------------------------------------------------------------------------------
	Average   0.00000            Van der Waals: 0.000000           Coulomb: 0.00000            [K]
	      +/- 0.00000                       +/- 0.000000                +/- 0.00000            [K]

Average Host-Adsorbate energy:
==============================
	Block[ 0] 0.00000            Van der Waals: 0.00000            Coulomb: 0.00000            [K]
	Block[ 1] 0.00000            Van der Waals: 0.00000            Coulomb: 0.00000            [K]
	Block[ 2] 0.00000            Van der Waals: 0.00000            Coulomb: 0.00000            [K]
	Block[ 3] 0.00000            Van der Waals: 0.00000            Coulomb: 0.00000            [K]
	Block[ 4] 0.00000            Van der Waals: 0.00000            Coulomb: 0.00000            [K]
	------------------------------------------------------------------------------
	Average   0.00000            Van der Waals: 0.000000           Coulomb: 0.00000            [K]
	      +/- 0.00000                       +/- 0.000000                +/- 0.00000            [K]

Average Host-Cation energy:
===========================
	Block[ 0] 0.00000            Van der Waals: 0.00000            Coulomb: 0.00000            [K]
	Block[ 1] 0.00000            Van der Waals: 0.00000            Coulomb: 0.00000            [K]
	Block[ 2] 0.00000            Van der Waals: 0.00000            Coulomb: 0.00000            [K]
	Block[ 3] 0.00000            Van der Waals: 0.00000            Coulomb: 0.00000            [K]
	Block[ 4] 0.00000            Van der Waals: 0.00000            Coulomb: 0.00000            [K]
	------------------------------------------------------------------------------
	Average   0.00000            Van der Waals: 0.000000           Coulomb: 0.00000            [K]
	      +/- 0.00000                       +/- 0.000000                +/- 0.00000            [K]

Average Adsorbate-Cation energy:
================================
	Block[ 0] 0.00000            Van der Waals: 0.00000            Coulomb: 0.00000            [K]
	Block[ 1] 0.00000            Van der Waals: 0.00000            Coulomb: 0.00000            [K]
	Block[ 2] 0.00000            Van der Waals: 0.00000            Coulomb: 0.00000            [K]
	Block[ 3] 0.00000            Van der Waals: 0.00000            Coulomb: 0.00000            [K]
	Block[ 4] 0.00000            Van der Waals: 0.00000            Coulomb: 0.00000            [K]
	------------------------------------------------------------------------------
	Average   0.00000            Van der Waals: 0.000000           Coulomb: 0.00000            [K]
	      +/- 0.00000                       +/- 0.000000                +/- 0.00000            [K]

Host polarization energy:
=======================
	Block[ 0]            0.00000 [K]
	Block[ 1]            0.00000 [K]
	Block[ 2]            0.00000 [K]
	Block[ 3]            0.00000 [K]
	Block[ 4]            0.00000 [K]
	------------------------------------------------------------------------------
	Average              0.00000 [K] +/-            0.00000 [K]

Adsorbate polarization energy:
=======================
	Block[ 0]            0.00000 [K]
	Block[ 1]            0.00000 [K]
	Block[ 2]            0.00000 [K]
	Block[ 3]            0.00000 [K]
	Block[ 4]            0.00000 [K]
	------------------------------------------------------------------------------
	Average              0.00000 [K] +/-            0.00000 [K]

Cation polarization energy:
=======================
	Block[ 0]            0.00000 [K]
	Block[ 1]            0.00000 [K]
	Block[ 2]            0.00000 [K]
	Block[ 3]            0.00000 [K]
	Block[ 4]            0.00000 [K]
	------------------------------------------------------------------------------
	Average              0.00000 [K] +/-            0.00000 [K]

Host back-polarization energy:
=======================
	Block[ 0]            0.00000 [K]
	Block[ 1]            0.00000 [K]
	Block[ 2]            0.00000 [K]
	Block[ 3]            0.00000 [K]
	Block[ 4]            0.00000 [K]
	------------------------------------------------------------------------------
	Average              0.00000 [K] +/-            0.00000 [K]

Adsorbate back-polarization energy:
=======================
	Block[ 0]            0.00000 [K]
	Block[ 1]            0.00000 [K]
	Block[ 2]            0.00000 [K]
	Block[ 3]            0.00000 [K]
	Block[ 4]            0.00000 [K]
	------------------------------------------------------------------------------
	Average              0.00000 [K] +/-            0.00000 [K]

Cation back-polarization energy:
=======================
	Block[ 0]            0.00000 [K]
	Block[ 1]            0.00000 [K]
	Block[ 2]            0.00000 [K]
	Block[ 3]            0.00000 [K]
	Block[ 4]            0.00000 [K]
	------------------------------------------------------------------------------
	Average              0.00000 [K] +/-            0.00000 [K]

Tail-correction energy:
=======================
	Block[ 0]            0.00000 [K]
	Block[ 1]            0.00000 [K]
	Block[ 2]            0.00000 [K]
	Block[ 3]            0.00000 [K]
	Block[ 4]            0.00000 [K]
	------------------------------------------------------------------------------
	Average              0.00000 [K] +/-            0.00000 [K]

Distance-constraints energy:
=======================
	Block[ 0]            0.00000 [K]
	Block[ 1]            0.00000 [K]
	Block[ 2]            0.00000 [K]
	Block[ 3]            0.00000 [K]
	Block[ 4]            0.00000 [K]
	------------------------------------------------------------------------------
	Average              0.00000 [K] +/-            0.00000 [K]

Angle-constraints energy:
=======================
	Block[ 0]            0.00000 [K]
	Block[ 1]            0.00000 [K]
	Block[ 2]            0.00000 [K]
	Block[ 3]            0.00000 [K]
	Block[ 4]            0.00000 [K]
	------------------------------------------------------------------------------
	Average              0.00000 [K] +/-            0.00000 [K]

Dihedral-constraints energy:
=======================
	Block[ 0]            0.00000 [K]
	Block[ 1]            0.00000 [K]
	Block[ 2]            0.00000 [K]
	Block[ 3]            0.00000 [K]
	Block[ 4]            0.00000 [K]
	------------------------------------------------------------------------------
	Average              0.00000 [K] +/-            0.00000 [K]

Inversion-bend constraints energy:
=======================
	Block[ 0]            0.00000 [K]
	Block[ 1]            0.00000 [K]
	Block[ 2]            0.00000 [K]
	Block[ 3]            0.00000 [K]
	Block[ 4]            0.00000 [K]
	------------------------------------------------------------------------------
	Average              0.00000 [K] +/-            0.00000 [K]

Out-of-plane-distance constraints energy:
=======================
	Block[ 0]            0.00000 [K]
	Block[ 1]            0.00000 [K]
	Block[ 2]            0.00000 [K]
	Block[ 3]            0.00000 [K]
	Block[ 4]            0.00000 [K]
	------------------------------------------------------------------------------
	Average              0.00000 [K] +/-            0.00000 [K]

Exclusion-constraints energy:
=======================
	Block[ 0]            0.00000 [K]
	Block[ 1]            0.00000 [K]
	Block[ 2]            0.00000 [K]
	Block[ 3]            0.00000 [K]
	Block[ 4]            0.00000 [K]
	------------------------------------------------------------------------------
	Average              0.00000 [K] +/-            0.00000 [K]

Total energy:
=============
	Block[ 0]            0.00000 [K]
	Block[ 1]            0.00000 [K]
	Block[ 2]            0.00000 [K]
	Block[ 3]            0.00000 [K]
	Block[ 4]            0.00000 [K]
	------------------------------------------------------------------------------
	Average              0.00000 [K] +/-            0.00000 [K]

Number of molecules:
====================

Component 0 [N2]
-------------------------------------------------------------
	Block[ 0] 0.00000            [-]
	Block[ 1] 0.00000            [-]
	Block[ 2] 0.00000            [-]
	Block[ 3] 0.00000            [-]
	Block[ 4] 0.00000            [-]
	------------------------------------------------------------------------------
	Average                                      0.0000000000 +/-       0.0000000000 [-]
	Average loading absolute [molecules/unit cell]        0.0000000000 +/-       0.0000000000 [-]
	Average loading absolute [mol/kg framework]          0.0000000000 +/-       0.0000000000 [-]
	Average loading absolute [milligram/gram framework]          0.0000000000 +/-       0.0000000000 [-]
	Average loading absolute [cm^3 (STP)/gr framework]          0.0000000000 +/-       0.0000000000 [-]
	Average loading absolute [cm^3 (STP)/cm^3 framework]          0.0000000000 +/-       0.0000000000 [-]

	Block[ 0] 0.00000            [-]
	Block[ 1] 0.00000            [-]
	Block[ 2] 0.00000            [-]
	Block[ 3] 0.00000            [-]
	Block[ 4] 0.00000            [-]
	------------------------------------------------------------------------------
	Average                                      0.0000000000 +/-       0.0000000000 [-]
	Average loading excess [molecules/unit cell]        0.0000000000 +/-       0.0000000000 [-]
	Average loading excess [mol/kg framework]          0.0000000000 +/-       0.0000000000 [-]
	Average loading excess [milligram/gram framework]          0.0000000000 +/-       0.0000000000 [-]
	Average loading excess [cm^3 (STP)/gr framework]          0.0000000000 +/-       0.0000000000 [-]
	Average loading excess [cm^3 (STP)/cm^3 framework]          0.0000000000 +/-       0.0000000000 [-]


Average Widom Rosenbluth factor:
================================
	Block[ 0] 0 [-]
	Block[ 1] 0 [-]
	Block[ 2] 0 [-]
	Block[ 3] 0 [-]
	Block[ 4] 0 [-]
	------------------------------------------------------------------------------
	[N2] Average Widom Rosenbluth-weight:   0 +/- 0.000000 [-]

Average Widom chemical potential:
=================================
	Block[ 0] 0 [-]
	Block[ 1] 0 [-]
	Block[ 2] 0 [-]
	Block[ 3] 0 [-]
	Block[ 4] 0 [-]
	------------------------------------------------------------------------------
	[N2] Average chemical potential:   0 +/- 0.000000 [K]

Average Widom Ideal-gas contribution:
=====================================
	Block[ 0] 0 [-]
	Block[ 1] 0 [-]
	Block[ 2] 0 [-]
	Block[ 3] 0 [-]
	Block[ 4] 0 [-]
	------------------------------------------------------------------------------
	[N2] Average Widom Ideal-gas chemical potential:   0 +/- 0.000000 [-]

Average Widom excess contribution:
==================================
	Block[ 0] 0 [-]
	Block[ 1] 0 [-]
	Block[ 2] 0 [-]
	Block[ 3] 0 [-]
	Block[ 4] 0 [-]
	------------------------------------------------------------------------------
	[N2] Average Widom excess chemical potential:   0 +/- 0.000000 [-]

Average Gibbs Widom Rosenbluth factor:
======================================
	Block[ 0] 0 [-]
	Block[ 1] 0 [-]
	Block[ 2] 0 [-]
	Block[ 3] 0 [-]
	Block[ 4] 0 [-]
	------------------------------------------------------------------------------
	[N2] Average Gibbs Widom Rosenbluth-weight:   0 +/- 0.000000 [-]

Average Gibbs Widom chemical potential:
=======================================
	Block[ 0] 0 [-]
	Block[ 1] 0 [-]
	Block[ 2] 0 [-]
	Block[ 3] 0 [-]
	Block[ 4] 0 [-]
	------------------------------------------------------------------------------
	[N2] Average Gibbs chemical potential:   0 +/- 0.000000 [K]

Average Gibbs Widom Ideal-gas contribution:
===========================================
	Block[ 0] 0 [-]
	Block[ 1] 0 [-]
	Block[ 2] 0 [-]
	Block[ 3] 0 [-]
	Block[ 4] 0 [-]
	------------------------------------------------------------------------------
	[N2] Average Gibbs Ideal-gas chemical potential:   0 +/- 0.000000 [-]

Average Gibbs Widom excess contribution:
===========================================
	Block[ 0] 0 [-]
	Block[ 1] 0 [-]
	Block[ 2] 0 [-]
	Block[ 3] 0 [-]
	Block[ 4] 0 [-]
	------------------------------------------------------------------------------
	[N2] Average Gibbs excess chemical potential:   0 +/- 0.000000 [-]

Average Henry coefficient:
==========================
	Block[ 0] 0 [mol/kg/Pa]
	Block[ 1] 0 [mol/kg/Pa]
	Block[ 2] 0 [mol/kg/Pa]
	Block[ 3] 0 [mol/kg/Pa]
	Block[ 4] 0 [mol/kg/Pa]
	------------------------------------------------------------------------------
	[N2] Average Henry coefficient:  0 +/- 0 [mol/kg/Pa]

Average adsorption energy <U_gh>_1-<U_h>_0 obtained from Widom-insertion:
(Note: the total heat of adsorption is dH=<U_gh>_1-<U_h>_0 - <U_g> - RT)
=========================================================================

Simulation finished,  0 warnings


Sat Dec 11 08:41:29 2021
Simulation finished on Saturday, December 11.
The end time was 08:41 AM.

